ITEM: TIMESTEP
0
ITEM: NUMBER OF ATOMS
50000
ITEM: BOX BOUNDS pp pp pp
-2.2500000000000000e+02 2.2500000000000000e+02
-2.2500000000000000e+02 2.2500000000000000e+02
-2.2500000000000000e+02 2.2500000000000000e+02
ITEM: ATOMS id type xs ys zs
7393 1 0.101446 0.00595035 0.00813262
19653 1 0.247635 0.00708036 0.00320809
16111 1 0.314155 0.000892556 0.00279781
47228 1 0.661987 0.00351095 0.00883695
40849 1 0.755697 0.0060097 0.000399003
24462 1 0.161065 0.0149345 0.00342518
16895 1 0.38371 0.0141016 0.00489155
9213 1 0.421432 0.0138043 0.00899917
48863 1 0.449992 0.0143994 0.00655217
9234 1 0.566313 0.0235021 0.00010446
48691 1 0.61772 0.0119599 0.00940012
41270 1 0.751117 0.0143991 0.00797628
27101 1 0.778426 0.0138635 0.00404371
25098 1 0.91932 0.0149938 0.00145945
8349 1 0.0106523 0.029215 0.00368661
38900 1 0.0553953 0.031297 0.00695946
45701 1 0.113407 0.0243352 0.00136955
43401 1 0.141907 0.0279057 0.00547726
16839 1 0.486228 0.0252875 0.00689715
24962 1 0.487239 0.0245134 0.00194368
1283 1 0.508956 0.0238596 0.00672553
39196 1 0.783366 0.0333198 0.00628076
19957 1 0.867973 0.0295714 0.00663
7730 1 0.0455787 0.0381984 0.00250194
20859 1 0.143097 0.0393277 0.00134959
29129 1 0.268105 0.0456956 0.00456601
34484 1 0.497652 0.0407571 0.00476165
49755 1 0.654491 0.0362351 0.00267847
7334 1 0.669605 0.0401025 0.00079249
20212 1 0.723511 0.0430774 0.00123525
22535 1 0.31987 0.0559889 0.00265442
904 1 0.385914 0.0587256 0.00134969
8420 1 0.537636 0.0553346 0.00799912
27727 1 0.565244 0.0543226 0.000821275
49480 1 0.886182 0.0547987 0.00103768
9027 1 0.970789 0.0562861 0.000167311
5605 1 0.0105951 0.0682458 0.00483251
37146 1 0.0512326 0.0657471 0.0115403
21813 1 0.495155 0.0619991 0.00976847
26507 1 0.637893 0.0624149 0.00687149
31865 1 0.747252 0.0687218 0.0075611
49948 1 0.779917 0.0637236 0.00255355
2996 1 0.926523 0.0638427 0.00542318
14297 1 0.020353 0.0756831 0.00871352
9569 1 0.381274 0.0765162 0.00800656
39794 1 0.495512 0.0724696 0.00569374
45402 1 0.981441 0.0756235 0.00316597
49346 1 0.357654 0.0872862 0.00261804
15122 1 0.623972 0.08913 0.00913496
31462 1 0.633491 0.0853813 0.00276177
3593 1 0.792294 0.091569 0.00114501
2408 1 0.907246 0.0894872 0.0115456
46458 1 0.0258286 0.102101 0.0113595
39178 1 0.0722969 0.0941277 0.00259103
46321 1 0.357238 0.0960908 0.00646023
22823 1 0.492955 0.103112 0.00977896
24537 1 0.49123 0.096984 0.00167514
5750 1 0.512233 0.101566 0.0085071
10032 1 0.649378 0.0993039 0.00146646
12353 1 0.832397 0.0966269 0.0100417
45446 1 0.00554 0.111145 0.0085448
25896 1 0.157619 0.108646 0.00886635
20378 1 0.237349 0.11644 0.00596195
45883 1 0.357357 0.107217 0.00880402
47184 1 0.510985 0.11525 0.00805491
48097 1 0.660208 0.116618 0.00112925
8401 1 0.758381 0.106206 0.000663695
19148 1 0.758916 0.107337 0.00542053
35035 1 0.354086 0.125424 0.00261635
49750 1 0.38098 0.122628 0.00809423
14640 1 0.4522 0.127567 0.0109587
49030 1 0.46523 0.128757 0.0107679
25025 1 0.567926 0.123699 0.00527647
6830 1 0.768556 0.117868 0.0111191
41866 1 0.951753 0.120783 0.00262546
25173 1 0.144293 0.138157 0.0112402
21995 1 0.216763 0.14018 0.0105535
15441 1 0.348851 0.141013 0.00603479
6864 1 0.832399 0.132981 0.00306654
15273 1 0.0144672 0.149938 0.000467834
14461 1 0.0445163 0.143984 0.00369068
40699 1 0.0404658 0.150656 0.00473365
2043 1 0.240801 0.142441 0.0025282
37624 1 0.329277 0.152913 0.0112413
30960 1 0.469158 0.141489 0.00475635
43206 1 0.822107 0.142679 0.00362645
39514 1 0.834304 0.147558 0.00539641
3006 1 0.871432 0.1497 0.00817422
30140 1 0.985312 0.145357 0.00906114
15754 1 0.070456 0.154995 0.00234346
23470 1 0.30869 0.153746 0.00472695
22023 1 0.405555 0.156245 0.00376363
6605 1 0.436257 0.163742 0.00783135
14225 1 0.640754 0.159696 0.00849237
14798 1 0.666756 0.1616 0.0065014
28450 1 0.677881 0.16273 0.00657805
9413 1 0.729408 0.160647 0.000668404
5009 1 0.779863 0.157078 0.0074861
31993 1 0.79563 0.159874 0.00384735
44500 1 0.797772 0.153448 0.00150907
35002 1 0.905941 0.153567 0.00510643
33369 1 0.196595 0.171417 0.0045153
11806 1 0.25425 0.167907 0.00872525
18031 1 0.314343 0.172013 0.00994906
25882 1 0.357183 0.169394 0.0115801
16727 1 0.547639 0.171656 0.00834453
31708 1 0.0653412 0.188136 0.000629599
30177 1 0.125792 0.18058 0.00891327
17402 1 0.22587 0.181293 0.00261231
31736 1 0.261925 0.17939 0.00526131
5212 1 0.521282 0.181115 0.00483909
19096 1 0.545201 0.184685 0.00801603
34911 1 0.555195 0.180996 0.00791792
10099 1 0.606127 0.185994 0.002587
42317 1 0.603212 0.176534 0.00868194
8309 1 0.806401 0.181949 0.000680953
15584 1 0.963657 0.185994 0.00864441
47907 1 0.229916 0.194383 0.0029484
4933 1 0.351177 0.195575 0.0110883
47160 1 0.376521 0.188375 0.0117299
23618 1 0.424002 0.193551 0.00373389
38282 1 0.424894 0.194086 0.0099831
32736 1 0.589944 0.192599 0.00694035
16015 1 0.802237 0.191705 0.00353987
678 1 0.201179 0.210926 0.00820093
30273 1 0.670804 0.205212 0.00421073
40317 1 0.0236934 0.215208 0.0052881
6123 1 0.135314 0.220385 0.0103299
7150 1 0.195349 0.219671 0.00647253
26585 1 0.334279 0.219671 0.00567425
22593 1 0.349986 0.220802 0.00668255
27295 1 0.422635 0.220801 0.00265941
46303 1 0.918142 0.213959 0.004408
23440 1 0.987221 0.215149 0.0104861
15876 1 0.0407112 0.233653 0.00573167
44192 1 0.134005 0.224906 0.00132482
44072 1 0.197907 0.228535 0.00514111
37773 1 0.410379 0.233118 0.0116056
6815 1 0.668962 0.234665 0.0112824
40057 1 0.680087 0.227703 0.00128533
15313 1 0.128175 0.236807 0.00932444
1485 1 0.273948 0.246446 0.0098073
35584 1 0.284241 0.241686 0.00959176
44605 1 0.301734 0.246862 0.00745812
34638 1 0.316192 0.241626 0.0082001
15447 1 0.412461 0.23639 0.00678232
1294 1 0.9376 0.244065 0.0069016
13853 1 0.241879 0.25543 0.0086687
31898 1 0.463453 0.256976 0.0025296
4421 1 0.482135 0.251146 0.00896691
26898 1 0.472259 0.247695 0.00221142
38795 1 0.228849 0.258881 0.0107687
6674 1 0.303103 0.259119 0.0112867
8094 1 0.319823 0.258881 0.0104702
42168 1 0.414248 0.264236 0.010054
18602 1 0.435608 0.259535 0.011434
2985 1 0.516586 0.258881 0.00776233
44457 1 0.668309 0.266258 0.0104092
9069 1 0.697403 0.259297 0.00577309
6257 1 0.741076 0.261975 0.0108242
22869 1 0.766482 0.266318 0.00750329
15324 1 0.871379 0.260546 6.33309e-05
11663 1 0.0898009 0.273636 0.00469189
16675 1 0.126333 0.273874 0.00266333
7591 1 0.209096 0.274589 0.00992592
3809 1 0.225756 0.274469 0.00437189
41900 1 0.25866 0.276314 0.00614618
7481 1 0.268356 0.274291 0.00303775
14288 1 0.428112 0.272803 0.00233488
49494 1 0.614165 0.275005 0.0108168
17433 1 0.723465 0.272446 0.00138791
20654 1 0.826577 0.2803 0.00941567
3449 1 0.879769 0.275183 0.00305682
17347 1 0.0682032 0.290355 0.0025949
42858 1 0.126988 0.286131 0.00976359
43331 1 0.262586 0.291903 0.011428
20957 1 0.335592 0.286369 0.00855311
11490 1 0.36897 0.284525 0.0100036
48225 1 0.459588 0.291248 0.00230112
5547 1 0.5959 0.296127 0.00538593
24134 1 0.729654 0.297674 0.00701871
29149 1 0.785762 0.294996 0.00516846
5757 1 0.805158 0.295591 0.000858568
32992 1 0.0324457 0.314691 0.00780707
16154 1 0.216774 0.316892 0.00227217
40180 1 0.216833 0.306599 0.00788473
1567 1 0.526585 0.316535 0.000847653
43634 1 0.595613 0.310779 0.000270836
21142 1 0.699489 0.30761 0.000920524
1043 1 0.880426 0.313322 0.00562261
18362 1 0.0949799 0.326412 0.00604428
32669 1 0.241347 0.328971 0.00594802
14236 1 0.315364 0.321473 0.00437727
14339 1 0.48803 0.323973 0.00686541
16306 1 0.627496 0.32659 0.00300369
36370 1 0.662541 0.320819 0.00869624
41978 1 0.677177 0.318201 0.00800993
12023 1 0.752741 0.321236 0.00536871
6562 1 0.0577922 0.338311 0.00424864
27717 1 0.0797489 0.340454 0.0107806
43055 1 0.234506 0.334741 0.00257271
30677 1 0.320424 0.338728 0.000104761
28624 1 0.608219 0.338312 0.0034009
20875 1 0.718828 0.340811 0.00523163
25024 1 0.0405394 0.345511 0.0103866
1912 1 0.145734 0.347654 0.00820999
28114 1 0.199937 0.348962 0.0116639
16908 1 0.387062 0.347118 0.0102023
17199 1 0.625534 0.345511 0.00460293
1860 1 0.677774 0.34569 0.00984264
3043 1 0.697587 0.347058 0.00394284
18793 1 0.845442 0.347713 0.0114256
48300 1 0.889828 0.346344 0.00816892
40792 1 0.146032 0.357351 0.00409008
17825 1 0.196844 0.360207 0.00179581
1019 1 0.252713 0.354138 0.00132743
26462 1 0.291685 0.354377 0.0100498
46432 1 0.44085 0.358423 0.0112427
35082 1 0.704132 0.356875 0.0100329
9312 1 0.790585 0.363182 0.0060656
3286 1 0.959859 0.357649 0.000553391
47218 1 0.0498229 0.373238 0.00624152
36079 1 0.115212 0.367466 0.00443637
3122 1 0.144724 0.36937 0.00828387
2598 1 0.223679 0.366217 0.00948091
38103 1 0.304955 0.370322 0.00134388
21002 1 0.312629 0.366098 0.00153977
22077 1 0.572939 0.374071 0.00775618
28262 1 0.776008 0.370917 0.0102689
17461 1 0.790704 0.365622 0.00146431
39712 1 0.85419 0.373714 0.0056518
3941 1 0.901219 0.36866 0.00527043
11145 1 0.900098 0.369128 0.00795369
43262 1 0.98836 0.375439 0.00882235
33716 1 0.100933 0.380258 0.00261078
11570 1 0.203093 0.386209 0.00747189
41937 1 0.478692 0.376867 0.00396174
1299 1 0.522603 0.383234 0.00606662
25396 1 0.635472 0.380556 0.00721408
35154 1 0.690925 0.383888 0.00746072
23611 1 0.769643 0.382579 0.00882039
30365 1 0.843481 0.383233 0.00467353
3095 1 0.945878 0.378057 0.00555536
24284 1 0.995204 0.386863 0.000718956
46891 1 0.411281 0.392099 0.000375711
28439 1 0.721449 0.394895 0.00704451
20164 1 0.94219 0.3943 0.00721407
25254 1 0.946891 0.390611 0.00945597
13698 1 0.978663 0.393468 0.00670806
16379 1 0.172631 0.400964 0.00809142
7761 1 0.392241 0.400786 0.00686664
20441 1 0.563837 0.410008 0.00522193
44150 1 0.734063 0.401737 0.000967936
10612 1 0.764586 0.400786 0.0108111
1092 1 0.845505 0.405486 0.0011821
4511 1 0.978426 0.405783 0.00443125
46799 1 0.997525 0.406557 0.00493065
43023 1 0.292343 0.417803 0.0112083
14075 1 0.54688 0.417029 0.00654524
11123 1 0.575024 0.422681 0.00134043
7663 1 0.577701 0.421729 0.0072314
33485 1 0.664332 0.42048 0.0027122
4520 1 0.900602 0.413459 0.0049729
22604 1 0.145977 0.430357 0.0107731
43380 1 0.387543 0.428275 0.0110383
19802 1 0.397955 0.426549 0.00309389
9133 1 0.529626 0.430952 0.00363787
31994 1 0.663678 0.430833 0.00828134
20717 1 0.876506 0.430774 0.0112021
23482 1 0.936659 0.431012 0.0105629
20462 1 0.0703549 0.443149 0.00501823
12568 1 0.0777905 0.435831 0.0050322
7330 1 0.119739 0.446897 0.00457529
13543 1 0.531709 0.437973 0.00541509
9451 1 0.543312 0.446183 0.00116322
31885 1 0.611498 0.441602 0.00221186
49591 1 0.731508 0.4466 0.00921511
4257 1 0.796897 0.446659 0.00306221
1988 1 0.847114 0.435355 0.00778826
15444 1 0.0307286 0.457311 0.00690306
6248 1 0.0603591 0.456417 0.00736928
23847 1 0.172455 0.453562 0.00861419
5476 1 0.432109 0.449575 0.00616723
36467 1 0.999074 0.450831 0.00621216
47529 1 0.999552 0.453733 0.00634648
22221 1 0.0298964 0.466829 0.00451663
41564 1 0.343337 0.464568 0.000856843
35503 1 0.635061 0.469864 0.00874559
18722 1 0.642617 0.459155 0.00850601
9909 1 0.763995 0.463081 0.010485
48787 1 0.138364 0.480396 0.0105939
29505 1 0.202503 0.473791 0.00573931
6762 1 0.233681 0.473553 0.00444541
26131 1 0.254922 0.476588 0.00955129
47322 1 0.477567 0.475755 0.0110177
37334 1 0.879543 0.472303 0.00257134
25899 1 0.00538435 0.490688 0.000167651
35689 1 0.000267485 0.493009 0.002644
27541 1 0.0128804 0.488487 0.00369901
31416 1 0.100345 0.491938 0.0057273
49258 1 0.156869 0.49408 0.00732383
40450 1 0.277949 0.48456 0.00682297
48472 1 0.342922 0.489082 0.00104065
46731 1 0.413428 0.48938 0.00526809
27009 1 0.707294 0.489439 0.00456233
7156 1 0.935889 0.482597 0.00159238
38298 1 0.935889 0.485751 0.0113196
33654 1 0.0792825 0.500803 0.00301098
6176 1 0.240584 0.495032 0.000204149
48406 1 0.334355 0.500268 0.00779696
21690 1 0.618106 0.502172 0.00866255
31888 1 0.715922 0.498483 0.000792899
6997 1 0.783572 0.500268 0.0102857
13173 1 0.855031 0.499316 0.00795115
35374 1 0.0213309 0.508836 0.00708246
42429 1 0.0436433 0.51306 0.00102495
2618 1 0.595794 0.514845 0.0048046
40785 1 0.925181 0.516511 0.00389885
14710 1 0.937497 0.517107 0.0101076
18986 1 0.959154 0.507289 0.00633419
8891 1 0.0788677 0.528769 0.0113594
38874 1 0.186442 0.526983 0.0101546
45789 1 0.827424 0.51782 0.00208541
26984 1 0.116174 0.538764 0.0114898
20679 1 0.231007 0.538704 0.00303066
37959 1 0.314425 0.533409 0.00819606
25318 1 0.326027 0.531742 0.00325512
29883 1 0.543556 0.537872 0.00910674
3843 1 0.609778 0.538883 0.00290148
40074 1 0.775839 0.530196 0.00238207
13074 1 0.808862 0.537336 0.0108483
26963 1 0.916852 0.531981 0.00458048
20629 1 0.163179 0.546737 0.00851115
5339 1 0.237434 0.551914 0.00937427
40423 1 0.731275 0.544059 0.0065354
11969 1 0.789882 0.543346 0.00922004
42335 1 0.920601 0.551972 0.00068561
8738 1 0.111177 0.555185 0.000669192
20781 1 0.157527 0.563337 0.00413519
46075 1 0.183409 0.562802 0.00674548
19137 1 0.224342 0.55548 0.00673111
47846 1 0.261175 0.559886 0.00337445
34121 1 0.694506 0.561374 0.00506323
30431 1 0.832901 0.558755 0.00732804
21927 1 0.839682 0.553401 0.00440312
9612 1 0.000391273 0.574462 0.00355144
40800 1 0.0701238 0.56905 0.0106611
26813 1 0.481143 0.568097 0.00902288
14193 1 0.542605 0.567085 0.000185849
5493 1 0.617574 0.566728 0.000561612
39072 1 0.781732 0.572798 0.00134269
31847 1 0.885023 0.573392 0.00725395
29930 1 0.932562 0.567086 0.0111271
22272 1 0.956897 0.567086 0.00924095
13349 1 0.0450158 0.57964 0.00864144
9804 1 0.11689 0.578866 0.00784466
46999 1 0.65619 0.583864 0.00100304
29653 1 0.781852 0.583923 0.00368608
1298 1 0.937323 0.581365 0.00193509
24813 1 0.954458 0.580711 0.00578455
27157 1 0.104515 0.591124 0.00888026
34326 1 0.288784 0.597489 0.00364242
12271 1 0.36524 0.590588 0.00968979
39693 1 0.493818 0.599513 0.00940556
8884 1 0.547843 0.599691 0.00646675
25666 1 0.0817912 0.602165 0.0083366
36055 1 0.0797012 0.600609 0.00971051
28661 1 0.105706 0.607188 0.00666049
18728 1 0.408259 0.60689 0.00310588
10952 1 0.504826 0.610757 0.000695532
28659 1 0.641139 0.609211 0.0112569
27130 1 0.740442 0.604808 0.00470954
13231 1 3.6032e-05 0.620099 0.00203059
39208 1 0.0233606 0.620278 0.00822453
536 1 0.354234 0.612542 0.00169699
8970 1 0.585923 0.614804 0.00684351
33354 1 0.991827 0.61647 0.00611739
27843 1 0.0679257 0.626763 0.00232053
1623 1 0.107016 0.623908 0.00922473
38831 1 0.123676 0.629024 0.00245039
12471 1 0.451516 0.634974 0.00364877
43628 1 0.50322 0.62355 0.00657124
2650 1 0.53773 0.632951 0.000719834
15383 1 0.578903 0.627834 0.00558384
29786 1 0.747524 0.632951 0.00407718
1902 1 0.762815 0.632416 0.0113677
9659 1 0.836772 0.630571 0.002275
20488 1 0.0379387 0.637235 0.00574298
13363 1 0.0823847 0.640686 0.00756839
10278 1 0.232917 0.638127 0.00652149
14764 1 0.540765 0.640985 0.0103553
4784 1 0.719962 0.63997 0.00660859
7175 1 0.720347 0.641461 0.00409682
29707 1 0.789293 0.641102 0.00661198
40047 1 0.903174 0.637949 0.00124266
23837 1 0.92858 0.641102 0.004178
8037 1 0.963446 0.637652 0.0116427
36923 1 0.421411 0.648837 0.00732469
47433 1 0.542611 0.65074 0.0076024
29974 1 0.582296 0.647231 0.00645249
29856 1 0.798039 0.651395 0.00449741
9240 1 0.941373 0.652824 0.0110946
39553 1 0.956069 0.656513 0.00767089
26928 1 0.00194383 0.669543 0.00520592
37267 1 0.157296 0.668889 0.0115285
16300 1 0.511671 0.659904 0.00473118
35230 1 0.0557313 0.671863 0.000865607
4026 1 0.0657865 0.678229 0.00462953
41985 1 0.169077 0.674184 0.00863266
49283 1 0.294798 0.671268 0.00476055
32189 1 0.322346 0.673826 0.00100982
29984 1 0.340018 0.680134 0.00526826
46183 1 0.438786 0.676267 0.0115133
5393 1 0.495429 0.675612 0.00972793
4155 1 0.927035 0.681145 0.00243613
1193 1 0.0263995 0.685311 0.00757165
26601 1 0.0339548 0.689713 0.00680098
20033 1 0.137662 0.686739 0.00764979
28204 1 0.216558 0.688642 0.00445335
20223 1 0.42576 0.691077 0.0064805
25049 1 0.43236 0.683704 0.00185642
27698 1 0.433788 0.685667 0.0112959
46265 1 0.449853 0.686798 0.0106693
32388 1 0.553678 0.690606 0.010386
27914 1 0.570993 0.687928 0.0109025
21667 1 0.681483 0.689773 0.00795007
8008 1 0.700999 0.686678 0.00495081
11280 1 0.773945 0.6937 0.010884
46861 1 0.86599 0.693105 0.00880743
9032 1 0.892942 0.682394 0.00738675
13651 1 0.0183081 0.704171 0.00687133
10554 1 0.0843516 0.697626 0.00174945
49412 1 0.136949 0.696912 0.0100454
1062 1 0.292479 0.695722 0.00521183
26506 1 0.421352 0.698046 0.00759463
24548 1 0.818153 0.705421 0.00539572
37327 1 0.191629 0.715476 0.00829518
2528 1 0.455508 0.716131 0.0103234
42615 1 0.855341 0.712977 0.0101273
46431 1 0.940305 0.710418 0.00258469
4811 1 0.967079 0.706076 0.00797213
14189 1 0.0887561 0.724936 0.00461035
13857 1 0.171757 0.719463 0.00823807
29532 1 0.348945 0.72327 0.000663724
28076 1 0.703441 0.729161 0.00281043
10855 1 0.748064 0.71863 0.0115593
46357 1 0.976184 0.726542 0.00334643
19655 1 0.00879093 0.734097 0.00715231
42613 1 0.0422883 0.740227 0.00121086
22043 1 0.129811 0.734575 0.00259643
41658 1 0.327051 0.740763 0.000251984
15901 1 0.523813 0.733148 0.0112762
34915 1 0.541782 0.735229 0.00568921
7286 1 0.567843 0.73642 0.0115636
49474 1 0.782694 0.738859 0.00961549
6358 1 0.81286 0.734754 0.0113656
49223 1 0.827258 0.734278 0.00927888
6249 1 0.856175 0.740108 0.00397634
6195 1 0.100776 0.74231 0.00727703
15163 1 0.120232 0.742786 0.00770468
9254 1 0.211325 0.745523 0.00124148
35782 1 0.266897 0.743679 0.0106198
34011 1 0.448727 0.748855 0.000894172
37117 1 0.598604 0.746176 0.00785745
44568 1 0.601343 0.752724 0.00475179
32170 1 0.758955 0.752722 0.00604415
30988 1 0.914544 0.74707 0.00247556
32865 1 0.93519 0.746713 0.0105994
19702 1 0.0322935 0.76367 0.00268593
11442 1 0.132906 0.758494 0.0117468
13334 1 0.282368 0.763254 0.00343901
38106 1 0.632104 0.76248 0.00104527
19555 1 0.0130759 0.770334 0.00747644
7257 1 0.252619 0.766943 0.0063546
29805 1 0.260473 0.770274 0.00546677
41821 1 0.843742 0.772535 8.67946e-05
21424 1 0.0701366 0.785863 0.00200571
21394 1 0.0713858 0.781163 0.0078392
3766 1 0.32741 0.783424 0.0110994
34411 1 0.360968 0.780747 0.00295595
30272 1 0.679287 0.780271 0.0114042
17018 1 0.762943 0.781044 0.00111112
42728 1 0.776628 0.785209 0.00420392
36682 1 0.0253935 0.788422 0.000642045
6616 1 0.123389 0.794848 0.00454569
24559 1 0.271541 0.796216 0.00252738
42077 1 0.611935 0.791932 0.00439123
5152 1 0.740394 0.794074 0.00523586
32801 1 0.795014 0.792408 0.000498783
39709 1 0.939061 0.794134 0.00226056
47357 1 0.50216 0.808652 0.0117056
25510 1 0.757411 0.803237 0.00186263
26881 1 0.952925 0.804962 0.00896284
16739 1 0.129043 0.81954 0.00229145
36457 1 0.848564 0.814839 0.00551834
2722 1 0.984877 0.820313 0.00547527
4545 1 0.285882 0.824597 0.0024608
15648 1 0.405774 0.833284 0.00815337
32862 1 0.447601 0.827989 0.00657278
27609 1 0.477826 0.829893 0.00714883
10966 1 0.531435 0.824359 0.00545596
37391 1 0.830894 0.833522 0.0014176
32548 1 0.835951 0.834474 0.00393222
40623 1 0.88825 0.825252 0.010093
34374 1 0.301412 0.837628 0.00749366
45369 1 0.720639 0.844949 0.00367916
41917 1 0.746584 0.835902 0.00251524
9443 1 0.952213 0.846552 0.0040398
43382 1 0.203775 0.849468 0.0111519
1688 1 0.461822 0.84929 0.00919924
16732 1 0.563745 0.857679 0.0110949
46583 1 0.716776 0.858571 0.00676272
28370 1 0.7235 0.857083 0.00570001
20855 1 0.832085 0.858571 0.00457913
16717 1 0.0180202 0.865652 0.00549421
11343 1 0.17474 0.863629 0.00835679
1221 1 0.179382 0.869638 0.00811386
24797 1 0.282732 0.86815 0.00277781
11718 1 0.631812 0.867556 0.0068294
23938 1 0.69262 0.867317 0.00130915
39661 1 0.823756 0.869697 0.00178866
3349 1 0.890037 0.859523 0.00588851
22540 1 0.940909 0.86226 0.0083322
12245 1 0.336341 0.877432 0.00211784
27179 1 0.771993 0.878563 0.00820514
31834 1 0.992436 0.87529 0.00189139
10594 1 0.144635 0.88362 0.00612058
37266 1 0.191283 0.890701 0.0094697
421 1 0.277199 0.889154 0.00978579
36420 1 0.613131 0.891653 0.00958945
38520 1 0.679769 0.882966 0.00423336
5487 1 0.837026 0.892545 0.00941312
25433 1 0.861003 0.882668 0.00847399
28964 1 0.904795 0.892724 0.00926827
2616 1 0.949895 0.891355 0.00274027
42778 1 0.943886 0.89195 0.00522365
41995 1 0.0975723 0.901054 0.00295563
25353 1 0.192473 0.896294 0.00968993
42730 1 0.345385 0.900875 0.00404751
39195 1 0.527215 0.89903 0.00492563
25612 1 0.599625 0.904029 0.0107939
18852 1 0.653353 0.895699 0.00571951
34064 1 0.886053 0.896889 0.00747748
15154 1 0.340388 0.909978 0.00539476
31205 1 0.32956 0.91212 0.00867301
41769 1 0.84024 0.914857 0.00892569
15628 1 0.884031 0.91099 0.00399487
7101 1 0.0503317 0.924556 0.0081626
9038 1 0.25584 0.920034 0.00230726
24915 1 0.247156 0.925625 0.00393647
23895 1 0.432137 0.924377 0.00916051
42934 1 0.526502 0.919677 0.00488206
18525 1 0.195807 0.93003 0.00998204
30226 1 0.243882 0.933065 0.0017514
14510 1 0.836789 0.931037 0.00104248
49822 1 0.0497975 0.946928 0.0113836
19855 1 0.374484 0.947344 0.00789163
33825 1 0.682867 0.947285 0.0114461
30175 1 0.714878 0.949485 0.00227951
28371 1 0.800496 0.944071 0.00236841
30069 1 0.487711 0.955138 0.0049636
4555 1 0.666148 0.953056 0.0094788
33944 1 0.782945 0.963408 0.00305055
40147 1 0.803829 0.957161 0.00597534
13460 1 0.917055 0.953591 0.0101793
18760 1 0.939071 0.96442 0.00145497
27868 1 0.0728849 0.975725 0.00851388
5261 1 0.214671 0.967515 0.0114907
32164 1 0.232758 0.965313 0.0103415
1807 1 0.245015 0.972452 0.00433683
25039 1 0.337358 0.974832 0.00717973
39307 1 0.379126 0.974594 0.00120567
2005 1 0.404591 0.967752 0.00818997
31230 1 0.455939 0.967098 0.0087445
14588 1 0.489735 0.975606 0.0108569
12387 1 0.555541 0.970013 0.0105894
17576 1 0.591476 0.972686 0.0072351
12424 1 0.746532 0.964717 0.00516592
23747 1 0.788777 0.974416 0.00615583
27425 1 0.594694 0.979894 0.00727914
12115 1 0.641815 0.97864 0.00839439
13411 1 0.709108 0.978164 0.00510222
46033 1 0.846075 0.982567 0.00330618
14008 1 0.928005 0.977391 0.010277
32544 1 0.0860947 0.993753 0.0110564
22283 1 0.189147 0.993336 0.00583768
15246 1 0.32296 0.995062 0.0106438
13937 1 0.438865 0.999048 0.00231426
30796 1 0.555126 0.995122 0.00764519
39555 1 0.728684 0.995597 0.00352568
21645 1 0.281669 0.00583212 0.0204539
26391 1 0.522045 0.00803363 0.0211878
1072 1 0.549712 0.0016669 0.0199672
16195 1 0.669661 0.0033328 0.0140677
31113 1 0.796097 0.00731976 0.0232541
2091 1 0.918487 0.0110679 0.0171523
16103 1 0.0183274 0.0217194 0.0210876
20191 1 0.193314 0.0204093 0.0198095
25356 1 0.348844 0.023265 0.0200133
27322 1 0.362707 0.0204688 0.0194258
20691 1 0.443448 0.0222532 0.0127873
22964 1 0.750462 0.0183269 0.0210217
47685 1 0.885763 0.0211232 0.0177666
31891 1 0.0224325 0.0303449 0.022688
43442 1 0.113229 0.0347482 0.0132144
24489 1 0.431846 0.0285607 0.0196364
1697 1 0.46338 0.033261 0.0170511
9601 1 0.514771 0.0350689 0.0161865
13751 1 0.795325 0.0283821 0.0169089
8314 1 0.854407 0.023682 0.0208327
10831 1 0.371038 0.0451021 0.0183689
30115 1 0.516709 0.0372838 0.0160645
8062 1 0.628431 0.0404606 0.0209532
10700 1 0.769801 0.0387941 0.0133516
26845 1 0.829597 0.0427812 0.0209488
13140 1 0.897486 0.0451013 0.0177666
14352 1 0.0951416 0.0508728 0.0200884
46976 1 0.27477 0.0567627 0.012311
11433 1 0.317014 0.0510511 0.0153961
49560 1 0.365447 0.0522997 0.0149149
45399 1 0.506042 0.0489685 0.0152311
19397 1 0.729937 0.0545021 0.0169631
1806 1 0.980785 0.0551564 0.0129258
48426 1 0.590948 0.0688416 0.0171853
26408 1 0.665262 0.059976 0.0170608
49972 1 0.662406 0.0614638 0.0223263
40953 1 0.688824 0.0690795 0.0190893
24377 1 0.0756873 0.0768734 0.0119977
48631 1 0.235264 0.0774091 0.0146311
9322 1 0.341946 0.0785396 0.0153417
24221 1 0.37824 0.0741966 0.0209556
38657 1 0.415724 0.0815744 0.0208781
28022 1 0.44464 0.0711027 0.0223627
28425 1 0.80455 0.0791348 0.0191322
36439 1 0.10508 0.0824665 0.0145346
35415 1 0.150657 0.0895474 0.0227908
14468 1 0.20016 0.0904991 0.018966
43776 1 0.451484 0.0874644 0.0146036
29595 1 0.466834 0.0842514 0.0137749
1320 1 0.491526 0.0827642 0.0180733
20826 1 0.574408 0.0824664 0.0125701
24832 1 0.58857 0.0875839 0.0172463
23007 1 0.839536 0.0839542 0.0176477
7634 1 0.937413 0.0934743 0.0233689
21124 1 0.072476 0.10454 0.0128001
6056 1 0.327905 0.0996616 0.0124781
39660 1 0.58982 0.0991854 0.0162923
36275 1 0.734402 0.0988881 0.0130822
41248 1 0.741602 0.0986501 0.0120388
28629 1 0.828649 0.0954972 0.0200049
18231 1 0.986024 0.0991261 0.0120751
18151 1 0.337247 0.1165 0.0170741
25526 1 0.478378 0.105909 0.0136386
13498 1 0.515744 0.111145 0.0165974
8170 1 0.608682 0.111978 0.0160787
30347 1 0.603386 0.11287 0.0137267
22696 1 0.633492 0.106505 0.0232518
22344 1 0.875356 0.110074 0.0143607
39264 1 0.958238 0.113228 0.0170215
36373 1 0.26329 0.120724 0.0136541
1550 1 0.548291 0.124354 0.012877
24000 1 0.582384 0.126555 0.0160917
17666 1 0.652652 0.118821 0.0197931
5713 1 0.664016 0.124532 0.0122312
26285 1 0.666278 0.129233 0.0122364
16567 1 0.996795 0.125544 0.012381
11598 1 0.0208327 0.135302 0.0175568
12904 1 0.129894 0.132505 0.0192389
1575 1 0.477309 0.140478 0.0209559
37054 1 0.805268 0.139883 0.0121723
26703 1 0.00637507 0.145179 0.0187228
20069 1 0.0883055 0.150772 0.0216901
13706 1 0.193678 0.149998 0.0208699
2134 1 0.247881 0.141728 0.0220708
6778 1 0.365333 0.149522 0.02171
14507 1 0.256278 0.154126 0.0183461
18081 1 0.254896 0.153665 0.0157856
24889 1 0.355278 0.158566 0.0158507
33240 1 0.969785 0.163921 0.0220796
49756 1 0.0172055 0.173559 0.0128179
8083 1 0.232414 0.175106 0.0139261
45881 1 0.261567 0.167134 0.0187205
5965 1 0.29578 0.172072 0.0157702
40254 1 0.447383 0.168918 0.0129443
20924 1 0.48701 0.173917 0.0155652
5433 1 0.54163 0.165825 0.0183035
33603 1 0.619871 0.169097 0.0152962
18716 1 0.809494 0.168919 0.0199335
48931 1 0.864234 0.174035 0.0140674
36192 1 0.200225 0.177605 0.0123519
24633 1 0.308156 0.179271 0.0176764
45910 1 0.307799 0.180461 0.0130559
29347 1 0.396631 0.181652 0.0163173
8584 1 0.504384 0.1807 0.0230687
2881 1 0.72453 0.182842 0.0203444
27441 1 0.778555 0.177784 0.0186253
19485 1 0.913678 0.182604 0.0187061
17245 1 0.945272 0.177606 0.0186058
33215 1 0.289772 0.193016 0.0165028
40759 1 0.347364 0.194264 0.0178883
41988 1 0.39574 0.199681 0.0177009
49834 1 0.400678 0.193849 0.0213446
12049 1 0.771714 0.198371 0.0162822
4740 1 0.911477 0.188851 0.0178709
34127 1 0.0282744 0.207891 0.0183874
23305 1 0.0642114 0.200691 0.0143445
26431 1 0.113239 0.208188 0.0221375
7120 1 0.144773 0.20795 0.0192079
41166 1 0.303398 0.207474 0.0139826
40831 1 0.3958 0.210329 0.018435
26827 1 0.526221 0.203726 0.016805
45890 1 0.570013 0.204202 0.0153467
35614 1 0.611127 0.204439 0.0142535
37739 1 0.969787 0.205213 0.0154494
20570 1 0.20814 0.216577 0.0123557
18977 1 0.414305 0.217887 0.021077
14939 1 0.560494 0.214078 0.0158083
6187 1 0.580961 0.218422 0.0131918
10936 1 0.699424 0.213186 0.0197022
886 1 0.915048 0.215507 0.0192201
38714 1 0.0885479 0.224491 0.0188721
25656 1 0.34731 0.229251 0.0139919
38180 1 0.60375 0.226752 0.0184473
3638 1 0.624218 0.230798 0.0173938
17341 1 0.670449 0.232167 0.0219881
31458 1 0.841925 0.22937 0.0226926
34596 1 0.956936 0.231928 0.0128061
22759 1 0.0228623 0.245851 0.0233912
6971 1 0.301258 0.23889 0.0164782
2896 1 0.336243 0.239068 0.0130857
519 1 0.349511 0.238412 0.0127326
1164 1 0.379677 0.239246 0.0148271
1954 1 0.429002 0.240734 0.0221587
5943 1 0.444889 0.245672 0.0154827
8316 1 0.675685 0.241269 0.0202919
35914 1 0.939861 0.245792 0.0225483
46632 1 0.0469008 0.252158 0.0204033
46221 1 0.134244 0.254955 0.0176483
36734 1 0.228908 0.25787 0.0201962
11734 1 0.249613 0.250195 0.0182936
25190 1 0.268594 0.255251 0.0143542
45989 1 0.70603 0.254896 0.0200835
16887 1 0.74875 0.247576 0.0118951
3585 1 0.795457 0.254241 0.0215457
10726 1 0.0491621 0.26733 0.0179684
44705 1 0.125142 0.259476 0.0224311
16259 1 0.255326 0.264296 0.0232166
33253 1 0.559009 0.268223 0.0229652
25037 1 0.622673 0.260964 0.0149634
31991 1 0.665869 0.26269 0.0184303
45365 1 0.698535 0.261142 0.0215881
34880 1 0.786355 0.264891 0.0204172
8937 1 0.794387 0.265902 0.0177574
2548 1 0.986926 0.26501 0.0171745
29459 1 0.364984 0.280599 0.0182207
9800 1 0.420853 0.278873 0.0212261
4052 1 0.433943 0.281134 0.0195167
4197 1 0.450365 0.277326 0.0169091
46518 1 0.460479 0.274589 0.0200296
29439 1 0.484874 0.280301 0.0185334
23776 1 0.506234 0.271554 0.0148769
39148 1 0.917016 0.280836 0.0219103
46191 1 0.91416 0.278873 0.0190115
5503 1 0.926238 0.272328 0.0200022
6014 1 0.928617 0.278576 0.020098
19307 1 0.0793889 0.290178 0.0136653
43992 1 0.224745 0.293807 0.0169579
25464 1 0.552941 0.283455 0.0233079
22558 1 0.726024 0.287619 0.0195136
9371 1 0.0406557 0.299638 0.0230191
16769 1 0.259612 0.301126 0.020419
6299 1 0.275142 0.305766 0.0169429
23299 1 0.363319 0.304279 0.0153559
48575 1 0.69574 0.304696 0.0202694
22389 1 0.926774 0.299043 0.021788
23086 1 0.98086 0.299995 0.0188945
23981 1 0.991212 0.297198 0.012469
10290 1 0.0690375 0.313323 0.0183405
7397 1 0.072905 0.314513 0.016287
32128 1 0.125799 0.309872 0.0131734
26996 1 0.538604 0.315227 0.0228141
45967 1 0.564605 0.308147 0.0154427
10153 1 0.707224 0.316298 0.0162709
3034 1 0.217369 0.325996 0.0218394
4181 1 0.237777 0.319987 0.0169246
28132 1 0.350825 0.325163 0.0154247
3301 1 0.897621 0.320939 0.0227185
28572 1 0.0599372 0.339979 0.011994
8178 1 0.342734 0.33266 0.0218556
8256 1 0.365463 0.33736 0.0157721
38321 1 0.774935 0.334862 0.020586
5135 1 0.811408 0.339562 0.0172963
23375 1 0.914698 0.33147 0.0162628
39960 1 0.348506 0.343786 0.0202236
18498 1 0.420203 0.352056 0.0121588
11583 1 0.747865 0.349856 0.0175673
13374 1 0.742606 0.34782 0.0228269
24565 1 0.744671 0.349213 0.0212544
28172 1 0.242778 0.361161 0.0143283
34314 1 0.286985 0.355984 0.0187545
16981 1 0.382005 0.360386 0.0118487
47231 1 0.533549 0.358721 0.0233983
36609 1 0.665875 0.363838 0.0128054
4905 1 0.694792 0.353366 0.0142903
39602 1 0.695624 0.357768 0.0224009
48251 1 0.777495 0.359435 0.015595
39670 1 0.873289 0.361934 0.0195392
29892 1 0.0260828 0.373953 0.0191863
24109 1 0.242184 0.371989 0.0215067
29460 1 0.249679 0.366634 0.0153104
41575 1 0.270505 0.375023 0.0160949
12079 1 0.629581 0.371929 0.0137915
21689 1 0.65713 0.373595 0.0147332
36733 1 0.652607 0.369133 0.0150669
41264 1 0.893936 0.369192 0.0139304
31954 1 0.915057 0.366931 0.0123452
44721 1 0.975866 0.375083 0.0153339