 # Fcc Fe oriented X=[100] Y=[010] Z=[001].
 CRYSTAL
 PRIMVEC
     74.76000000        0.00000000        0.00000000
      0.00000000       74.76000000        0.00000000
      0.00000000        0.00000000       74.76000000
 CONVVEC
     74.76000000        0.00000000        0.00000000
      0.00000000       74.76000000        0.00000000
      0.00000000        0.00000000       74.76000000
 PRIMCOORD
    37044 1
26        0.00000000        0.00000000        0.00000000
26        1.78000000        1.78000000        0.00000000
26        0.00000000        1.78000000        1.78000000
26        1.78000000        0.00000000        1.78000000
26        3.56000000        0.00000000        0.00000000
26        5.34000000        1.78000000        0.00000000
26        3.56000000        1.78000000        1.78000000
26        5.34000000        0.00000000        1.78000000
26        7.12000000        0.00000000        0.00000000
26        8.90000000        1.78000000        0.00000000
26        7.12000000        1.78000000        1.78000000
26        8.90000000        0.00000000        1.78000000
26       10.68000000        0.00000000        0.00000000
26       12.46000000        1.78000000        0.00000000
26       10.68000000        1.78000000        1.78000000
26       12.46000000        0.00000000        1.78000000
26       14.24000000        0.00000000        0.00000000
26       16.02000000        1.78000000        0.00000000
26       14.24000000        1.78000000        1.78000000
26       16.02000000        0.00000000        1.78000000
26       17.80000000        0.00000000        0.00000000
26       19.58000000        1.78000000        0.00000000
26       17.80000000        1.78000000        1.78000000
26       19.58000000        0.00000000        1.78000000
26       21.36000000        0.00000000        0.00000000
26       23.14000000        1.78000000        0.00000000
26       21.36000000        1.78000000        1.78000000
26       23.14000000        0.00000000        1.78000000
26       24.92000000        0.00000000        0.00000000
26       26.70000000        1.78000000        0.00000000
26       24.92000000        1.78000000        1.78000000
26       26.70000000        0.00000000        1.78000000
26       28.48000000        0.00000000        0.00000000
26       30.26000000        1.78000000        0.00000000
26       28.48000000        1.78000000        1.78000000
26       30.26000000        0.00000000        1.78000000
26       32.04000000        0.00000000        0.00000000
26       33.82000000        1.78000000        0.00000000
26       32.04000000        1.78000000        1.78000000
26       33.82000000        0.00000000        1.78000000
26       35.60000000        0.00000000        0.00000000
26       37.38000000        1.78000000        0.00000000
26       35.60000000        1.78000000        1.78000000
26       37.38000000        0.00000000        1.78000000
26       39.16000000        0.00000000        0.00000000
26       40.94000000        1.78000000        0.00000000
26       39.16000000        1.78000000        1.78000000
26       40.94000000        0.00000000        1.78000000
26       42.72000000        0.00000000        0.00000000
26       44.50000000        1.78000000        0.00000000
26       42.72000000        1.78000000        1.78000000
26       44.50000000        0.00000000        1.78000000
26       46.28000000        0.00000000        0.00000000
26       48.06000000        1.78000000        0.00000000
26       46.28000000        1.78000000        1.78000000
26       48.06000000        0.00000000        1.78000000
26       49.84000000        0.00000000        0.00000000
26       51.62000000        1.78000000        0.00000000
26       49.84000000        1.78000000        1.78000000
26       51.62000000        0.00000000        1.78000000
26       53.40000000        0.00000000        0.00000000
26       55.18000000        1.78000000        0.00000000
26       53.40000000        1.78000000        1.78000000
26       55.18000000        0.00000000        1.78000000
26       56.96000000        0.00000000        0.00000000
26       58.74000000        1.78000000        0.00000000
26       56.96000000        1.78000000        1.78000000
26       58.74000000        0.00000000        1.78000000
26       60.52000000        0.00000000        0.00000000
26       62.30000000        1.78000000        0.00000000
26       60.52000000        1.78000000        1.78000000
26       62.30000000        0.00000000        1.78000000
26       64.08000000        0.00000000        0.00000000
26       65.86000000        1.78000000        0.00000000
26       64.08000000        1.78000000        1.78000000
26       65.86000000        0.00000000        1.78000000
26       67.64000000        0.00000000        0.00000000
26       69.42000000        1.78000000        0.00000000
26       67.64000000        1.78000000        1.78000000
26       69.42000000        0.00000000        1.78000000
26       71.20000000        0.00000000        0.00000000
26       72.98000000        1.78000000        0.00000000
26       71.20000000        1.78000000        1.78000000
26       72.98000000        0.00000000        1.78000000
26        0.00000000        3.56000000        0.00000000
26        1.78000000        5.34000000        0.00000000
26        0.00000000        5.34000000        1.78000000
26        1.78000000        3.56000000        1.78000000
26        3.56000000        3.56000000        0.00000000
26        5.34000000        5.34000000        0.00000000
26        3.56000000        5.34000000        1.78000000
26        5.34000000        3.56000000        1.78000000
26        7.12000000        3.56000000        0.00000000
26        8.90000000        5.34000000        0.00000000
26        7.12000000        5.34000000        1.78000000
26        8.90000000        3.56000000        1.78000000
26       10.68000000        3.56000000        0.00000000
26       12.46000000        5.34000000        0.00000000
26       10.68000000        5.34000000        1.78000000
26       12.46000000        3.56000000        1.78000000
26       14.24000000        3.56000000        0.00000000
26       16.02000000        5.34000000        0.00000000
26       14.24000000        5.34000000        1.78000000
26       16.02000000        3.56000000        1.78000000
26       17.80000000        3.56000000        0.00000000
26       19.58000000        5.34000000        0.00000000
26       17.80000000        5.34000000        1.78000000
26       19.58000000        3.56000000        1.78000000
26       21.36000000        3.56000000        0.00000000
26       23.14000000        5.34000000        0.00000000
26       21.36000000        5.34000000        1.78000000
26       23.14000000        3.56000000        1.78000000
26       24.92000000        3.56000000        0.00000000
26       26.70000000        5.34000000        0.00000000
26       24.92000000        5.34000000        1.78000000
26       26.70000000        3.56000000        1.78000000
26       28.48000000        3.56000000        0.00000000
26       30.26000000        5.34000000        0.00000000
26       28.48000000        5.34000000        1.78000000
26       30.26000000        3.56000000        1.78000000
26       32.04000000        3.56000000        0.00000000
26       33.82000000        5.34000000        0.00000000
26       32.04000000        5.34000000        1.78000000
26       33.82000000        3.56000000        1.78000000
26       35.60000000        3.56000000        0.00000000
26       37.38000000        5.34000000        0.00000000
26       35.60000000        5.34000000        1.78000000
26       37.38000000        3.56000000        1.78000000
26       39.16000000        3.56000000        0.00000000
26       40.94000000        5.34000000        0.00000000
26       39.16000000        5.34000000        1.78000000
26       40.94000000        3.56000000        1.78000000
26       42.72000000        3.56000000        0.00000000
26       44.50000000        5.34000000        0.00000000
26       42.72000000        5.34000000        1.78000000
26       44.50000000        3.56000000        1.78000000
26       46.28000000        3.56000000        0.00000000
26       48.06000000        5.34000000        0.00000000
26       46.28000000        5.34000000        1.78000000
26       48.06000000        3.56000000        1.78000000
26       49.84000000        3.56000000        0.00000000
26       51.62000000        5.34000000        0.00000000
26       49.84000000        5.34000000        1.78000000
26       51.62000000        3.56000000        1.78000000
26       53.40000000        3.56000000        0.00000000
26       55.18000000        5.34000000        0.00000000
26       53.40000000        5.34000000        1.78000000
26       55.18000000        3.56000000        1.78000000
26       56.96000000        3.56000000        0.00000000
26       58.74000000        5.34000000        0.00000000
26       56.96000000        5.34000000        1.78000000
26       58.74000000        3.56000000        1.78000000
26       60.52000000        3.56000000        0.00000000
26       62.30000000        5.34000000        0.00000000
26       60.52000000        5.34000000        1.78000000
26       62.30000000        3.56000000        1.78000000
26       64.08000000        3.56000000        0.00000000
26       65.86000000        5.34000000        0.00000000
26       64.08000000        5.34000000        1.78000000
26       65.86000000        3.56000000        1.78000000
26       67.64000000        3.56000000        0.00000000
26       69.42000000        5.34000000        0.00000000
26       67.64000000        5.34000000        1.78000000
26       69.42000000        3.56000000        1.78000000
26       71.20000000        3.56000000        0.00000000
26       72.98000000        5.34000000        0.00000000
26       71.20000000        5.34000000        1.78000000
26       72.98000000        3.56000000        1.78000000
26        0.00000000        7.12000000        0.00000000
26        1.78000000        8.90000000        0.00000000
26        0.00000000        8.90000000        1.78000000
26        1.78000000        7.12000000        1.78000000
26        3.56000000        7.12000000        0.00000000
26        5.34000000        8.90000000        0.00000000
26        3.56000000        8.90000000        1.78000000
26        5.34000000        7.12000000        1.78000000
26        7.12000000        7.12000000        0.00000000
26        8.90000000        8.90000000        0.00000000
26        7.12000000        8.90000000        1.78000000
26        8.90000000        7.12000000        1.78000000
26       10.68000000        7.12000000        0.00000000
26       12.46000000        8.90000000        0.00000000
26       10.68000000        8.90000000        1.78000000
26       12.46000000        7.12000000        1.78000000
26       14.24000000        7.12000000        0.00000000
26       16.02000000        8.90000000        0.00000000
26       14.24000000        8.90000000        1.78000000
26       16.02000000        7.12000000        1.78000000
26       17.80000000        7.12000000        0.00000000
26       19.58000000        8.90000000        0.00000000
26       17.80000000        8.90000000        1.78000000
26       19.58000000        7.12000000        1.78000000
26       21.36000000        7.12000000        0.00000000
26       23.14000000        8.90000000        0.00000000
26       21.36000000        8.90000000        1.78000000
26       23.14000000        7.12000000        1.78000000
26       24.92000000        7.12000000        0.00000000
26       26.70000000        8.90000000        0.00000000
26       24.92000000        8.90000000        1.78000000
26       26.70000000        7.12000000        1.78000000
26       28.48000000        7.12000000        0.00000000
26       30.26000000        8.90000000        0.00000000
26       28.48000000        8.90000000        1.78000000
26       30.26000000        7.12000000        1.78000000
26       32.04000000        7.12000000        0.00000000
26       33.82000000        8.90000000        0.00000000
26       32.04000000        8.90000000        1.78000000
26       33.82000000        7.12000000        1.78000000
26       35.60000000        7.12000000        0.00000000
26       37.38000000        8.90000000        0.00000000
26       35.60000000        8.90000000        1.78000000
26       37.38000000        7.12000000        1.78000000
26       39.16000000        7.12000000        0.00000000
26       40.94000000        8.90000000        0.00000000
26       39.16000000        8.90000000        1.78000000
26       40.94000000        7.12000000        1.78000000
26       42.72000000        7.12000000        0.00000000
26       44.50000000        8.90000000        0.00000000
26       42.72000000        8.90000000        1.78000000
26       44.50000000        7.12000000        1.78000000
26       46.28000000        7.12000000        0.00000000
26       48.06000000        8.90000000        0.00000000
26       46.28000000        8.90000000        1.78000000
26       48.06000000        7.12000000        1.78000000
26       49.84000000        7.12000000        0.00000000
26       51.62000000        8.90000000        0.00000000
26       49.84000000        8.90000000        1.78000000
26       51.62000000        7.12000000        1.78000000
26       53.40000000        7.12000000        0.00000000
26       55.18000000        8.90000000        0.00000000
26       53.40000000        8.90000000        1.78000000
26       55.18000000        7.12000000        1.78000000
26       56.96000000        7.12000000        0.00000000
26       58.74000000        8.90000000        0.00000000
26       56.96000000        8.90000000        1.78000000
26       58.74000000        7.12000000        1.78000000
26       60.52000000        7.12000000        0.00000000
26       62.30000000        8.90000000        0.00000000
26       60.52000000        8.90000000        1.78000000
26       62.30000000        7.12000000        1.78000000
26       64.08000000        7.12000000        0.00000000
26       65.86000000        8.90000000        0.00000000
26       64.08000000        8.90000000        1.78000000
26       65.86000000        7.12000000        1.78000000
26       67.64000000        7.12000000        0.00000000
26       69.42000000        8.90000000        0.00000000
26       67.64000000        8.90000000        1.78000000
26       69.42000000        7.12000000        1.78000000
26       71.20000000        7.12000000        0.00000000
26       72.98000000        8.90000000        0.00000000
26       71.20000000        8.90000000        1.78000000
26       72.98000000        7.12000000        1.78000000
26        0.00000000       10.68000000        0.00000000
26        1.78000000       12.46000000        0.00000000
26        0.00000000       12.46000000        1.78000000
26        1.78000000       10.68000000        1.78000000
26        3.56000000       10.68000000        0.00000000
26        5.34000000       12.46000000        0.00000000
26        3.56000000       12.46000000        1.78000000
26        5.34000000       10.68000000        1.78000000
26        7.12000000       10.68000000        0.00000000
26        8.90000000       12.46000000        0.00000000
26        7.12000000       12.46000000        1.78000000
26        8.90000000       10.68000000        1.78000000
26       10.68000000       10.68000000        0.00000000
26       12.46000000       12.46000000        0.00000000
26       10.68000000       12.46000000        1.78000000
26       12.46000000       10.68000000        1.78000000
26       14.24000000       10.68000000        0.00000000
26       16.02000000       12.46000000        0.00000000
26       14.24000000       12.46000000        1.78000000
26       16.02000000       10.68000000        1.78000000
26       17.80000000       10.68000000        0.00000000
26       19.58000000       12.46000000        0.00000000
26       17.80000000       12.46000000        1.78000000
26       19.58000000       10.68000000        1.78000000
26       21.36000000       10.68000000        0.00000000
26       23.14000000       12.46000000        0.00000000
26       21.36000000       12.46000000        1.78000000
26       23.14000000       10.68000000        1.78000000
26       24.92000000       10.68000000        0.00000000
26       26.70000000       12.46000000        0.00000000
26       24.92000000       12.46000000        1.78000000
26       26.70000000       10.68000000        1.78000000
26       28.48000000       10.68000000        0.00000000
26       30.26000000       12.46000000        0.00000000
26       28.48000000       12.46000000        1.78000000
26       30.26000000       10.68000000        1.78000000
26       32.04000000       10.68000000        0.00000000
26       33.82000000       12.46000000        0.00000000
26       32.04000000       12.46000000        1.78000000
26       33.82000000       10.68000000        1.78000000
26       35.60000000       10.68000000        0.00000000
26       37.38000000       12.46000000        0.00000000
26       35.60000000       12.46000000        1.78000000
26       37.38000000       10.68000000        1.78000000
26       39.16000000       10.68000000        0.00000000
26       40.94000000       12.46000000        0.00000000
26       39.16000000       12.46000000        1.78000000
26       40.94000000       10.68000000        1.78000000
26       42.72000000       10.68000000        0.00000000
26       44.50000000       12.46000000        0.00000000
26       42.72000000       12.46000000        1.78000000
26       44.50000000       10.68000000        1.78000000
26       46.28000000       10.68000000        0.00000000
26       48.06000000       12.46000000        0.00000000
26       46.28000000       12.46000000        1.78000000
26       48.06000000       10.68000000        1.78000000
26       49.84000000       10.68000000        0.00000000
26       51.62000000       12.46000000        0.00000000
26       49.84000000       12.46000000        1.78000000
26       51.62000000       10.68000000        1.78000000
26       53.40000000       10.68000000        0.00000000
26       55.18000000       12.46000000        0.00000000
26       53.40000000       12.46000000        1.78000000
26       55.18000000       10.68000000        1.78000000
26       56.96000000       10.68000000        0.00000000
26       58.74000000       12.46000000        0.00000000
26       56.96000000       12.46000000        1.78000000
26       58.74000000       10.68000000        1.78000000
26       60.52000000       10.68000000        0.00000000
26       62.30000000       12.46000000        0.00000000
26       60.52000000       12.46000000        1.78000000
26       62.30000000       10.68000000        1.78000000
26       64.08000000       10.68000000        0.00000000
26       65.86000000       12.46000000        0.00000000
26       64.08000000       12.46000000        1.78000000
26       65.86000000       10.68000000        1.78000000
26       67.64000000       10.68000000        0.00000000
26       69.42000000       12.46000000        0.00000000
26       67.64000000       12.46000000        1.78000000
26       69.42000000       10.68000000        1.78000000
26       71.20000000       10.68000000        0.00000000
26       72.98000000       12.46000000        0.00000000
26       71.20000000       12.46000000        1.78000000
26       72.98000000       10.68000000        1.78000000
26        0.00000000       14.24000000        0.00000000
26        1.78000000       16.02000000        0.00000000
26        0.00000000       16.02000000        1.78000000
26        1.78000000       14.24000000        1.78000000
26        3.56000000       14.24000000        0.00000000
26        5.34000000       16.02000000        0.00000000
26        3.56000000       16.02000000        1.78000000
26        5.34000000       14.24000000        1.78000000
26        7.12000000       14.24000000        0.00000000
26        8.90000000       16.02000000        0.00000000
26        7.12000000       16.02000000        1.78000000
26        8.90000000       14.24000000        1.78000000
26       10.68000000       14.24000000        0.00000000
26       12.46000000       16.02000000        0.00000000
26       10.68000000       16.02000000        1.78000000
26       12.46000000       14.24000000        1.78000000
26       14.24000000       14.24000000        0.00000000
26       16.02000000       16.02000000        0.00000000
26       14.24000000       16.02000000        1.78000000
26       16.02000000       14.24000000        1.78000000
26       17.80000000       14.24000000        0.00000000
26       19.58000000       16.02000000        0.00000000
26       17.80000000       16.02000000        1.78000000
26       19.58000000       14.24000000        1.78000000
26       21.36000000       14.24000000        0.00000000
26       23.14000000       16.02000000        0.00000000
26       21.36000000       16.02000000        1.78000000
26       23.14000000       14.24000000        1.78000000
26       24.92000000       14.24000000        0.00000000
26       26.70000000       16.02000000        0.00000000
26       24.92000000       16.02000000        1.78000000
26       26.70000000       14.24000000        1.78000000
26       28.48000000       14.24000000        0.00000000
26       30.26000000       16.02000000        0.00000000
26       28.48000000       16.02000000        1.78000000
26       30.26000000       14.24000000        1.78000000
26       32.04000000       14.24000000        0.00000000
26       33.82000000       16.02000000        0.00000000
26       32.04000000       16.02000000        1.78000000
26       33.82000000       14.24000000        1.78000000
26       35.60000000       14.24000000        0.00000000
26       37.38000000       16.02000000        0.00000000
26       35.60000000       16.02000000        1.78000000
26       37.38000000       14.24000000        1.78000000
26       39.16000000       14.24000000        0.00000000
26       40.94000000       16.02000000        0.00000000
26       39.16000000       16.02000000        1.78000000
26       40.94000000       14.24000000        1.78000000
26       42.72000000       14.24000000        0.00000000
26       44.50000000       16.02000000        0.00000000
26       42.72000000       16.02000000        1.78000000
26       44.50000000       14.24000000        1.78000000
26       46.28000000       14.24000000        0.00000000
26       48.06000000       16.02000000        0.00000000
26       46.28000000       16.02000000        1.78000000
26       48.06000000       14.24000000        1.78000000
26       49.84000000       14.24000000        0.00000000
26       51.62000000       16.02000000        0.00000000
26       49.84000000       16.02000000        1.78000000
26       51.62000000       14.24000000        1.78000000
26       53.40000000       14.24000000        0.00000000
26       55.18000000       16.02000000        0.00000000
26       53.40000000       16.02000000        1.78000000
26       55.18000000       14.24000000        1.78000000
26       56.96000000       14.24000000        0.00000000
26       58.74000000       16.02000000        0.00000000
26       56.96000000       16.02000000        1.78000000
26       58.74000000       14.24000000        1.78000000
26       60.52000000       14.24000000        0.00000000
26       62.30000000       16.02000000        0.00000000
26       60.52000000       16.02000000        1.78000000
26       62.30000000       14.24000000        1.78000000
26       64.08000000       14.24000000        0.00000000
26       65.86000000       16.02000000        0.00000000
26       64.08000000       16.02000000        1.78000000
26       65.86000000       14.24000000        1.78000000
26       67.64000000       14.24000000        0.00000000
26       69.42000000       16.02000000        0.00000000
26       67.64000000       16.02000000        1.78000000
26       69.42000000       14.24000000        1.78000000
26       71.20000000       14.24000000        0.00000000
26       72.98000000       16.02000000        0.00000000
26       71.20000000       16.02000000        1.78000000
26       72.98000000       14.24000000        1.78000000
26        0.00000000       17.80000000        0.00000000
26        1.78000000       19.58000000        0.00000000
26        0.00000000       19.58000000        1.78000000
26        1.78000000       17.80000000        1.78000000
26        3.56000000       17.80000000        0.00000000
26        5.34000000       19.58000000        0.00000000
26        3.56000000       19.58000000        1.78000000
26        5.34000000       17.80000000        1.78000000
26        7.12000000       17.80000000        0.00000000
26        8.90000000       19.58000000        0.00000000
26        7.12000000       19.58000000        1.78000000
26        8.90000000       17.80000000        1.78000000
26       10.68000000       17.80000000        0.00000000
26       12.46000000       19.58000000        0.00000000
26       10.68000000       19.58000000        1.78000000
26       12.46000000       17.80000000        1.78000000
26       14.24000000       17.80000000        0.00000000
26       16.02000000       19.58000000        0.00000000
26       14.24000000       19.58000000        1.78000000
26       16.02000000       17.80000000        1.78000000
26       17.80000000       17.80000000        0.00000000
26       19.58000000       19.58000000        0.00000000
26       17.80000000       19.58000000        1.78000000
26       19.58000000       17.80000000        1.78000000
26       21.36000000       17.80000000        0.00000000
26       23.14000000       19.58000000        0.00000000
26       21.36000000       19.58000000        1.78000000
26       23.14000000       17.80000000        1.78000000
26       24.92000000       17.80000000        0.00000000
26       26.70000000       19.58000000        0.00000000
26       24.92000000       19.58000000        1.78000000
26       26.70000000       17.80000000        1.78000000
26       28.48000000       17.80000000        0.00000000
26       30.26000000       19.58000000        0.00000000
26       28.48000000       19.58000000        1.78000000
26       30.26000000       17.80000000        1.78000000
26       32.04000000       17.80000000        0.00000000
26       33.82000000       19.58000000        0.00000000
26       32.04000000       19.58000000        1.78000000
26       33.82000000       17.80000000        1.78000000
26       35.60000000       17.80000000        0.00000000
26       37.38000000       19.58000000        0.00000000
26       35.60000000       19.58000000        1.78000000
26       37.38000000       17.80000000        1.78000000
26       39.16000000       17.80000000        0.00000000
26       40.94000000       19.58000000        0.00000000
26       39.16000000       19.58000000        1.78000000
26       40.94000000       17.80000000        1.78000000
26       42.72000000       17.80000000        0.00000000
26       44.50000000       19.58000000        0.00000000
26       42.72000000       19.58000000        1.78000000
26       44.50000000       17.80000000        1.78000000
26       46.28000000       17.80000000        0.00000000
26       48.06000000       19.58000000        0.00000000
26       46.28000000       19.58000000        1.78000000
26       48.06000000       17.80000000        1.78000000
26       49.84000000       17.80000000        0.00000000
26       51.62000000       19.58000000        0.00000000
26       49.84000000       19.58000000        1.78000000
26       51.62000000       17.80000000        1.78000000
26       53.40000000       17.80000000        0.00000000
26       55.18000000       19.58000000        0.00000000
26       53.40000000       19.58000000        1.78000000
26       55.18000000       17.80000000        1.78000000
26       56.96000000       17.80000000        0.00000000
26       58.74000000       19.58000000        0.00000000
26       56.96000000       19.58000000        1.78000000
26       58.74000000       17.80000000        1.78000000
26       60.52000000       17.80000000        0.00000000
26       62.30000000       19.58000000        0.00000000
26       60.52000000       19.58000000        1.78000000
26       62.30000000       17.80000000        1.78000000
26       64.08000000       17.80000000        0.00000000
26       65.86000000       19.58000000        0.00000000
26       64.08000000       19.58000000        1.78000000
26       65.86000000       17.80000000        1.78000000
26       67.64000000       17.80000000        0.00000000
26       69.42000000       19.58000000        0.00000000
26       67.64000000       19.58000000        1.78000000
26       69.42000000       17.80000000        1.78000000
26       71.20000000       17.80000000        0.00000000
26       72.98000000       19.58000000        0.00000000
26       71.20000000       19.58000000        1.78000000
26       72.98000000       17.80000000        1.78000000
26        0.00000000       21.36000000        0.00000000
26        1.78000000       23.14000000        0.00000000
26        0.00000000       23.14000000        1.78000000
26        1.78000000       21.36000000        1.78000000
26        3.56000000       21.36000000        0.00000000
26        5.34000000       23.14000000        0.00000000
26        3.56000000       23.14000000        1.78000000
26        5.34000000       21.36000000        1.78000000
26        7.12000000       21.36000000        0.00000000
26        8.90000000       23.14000000        0.00000000
26        7.12000000       23.14000000        1.78000000
26        8.90000000       21.36000000        1.78000000
26       10.68000000       21.36000000        0.00000000
26       12.46000000       23.14000000        0.00000000
26       10.68000000       23.14000000        1.78000000