 # Fcc Fe oriented X=[100] Y=[010] Z=[001].
 
       37044  atoms
           3  atom types
 
      0.000000000000      74.760000000000  xlo xhi
      0.000000000000      74.760000000000  ylo yhi
      0.000000000000      74.760000000000  zlo zhi
 
Masses
 
            1   58.69340000             # Ni
            2   55.84500000             # Fe
            3   51.99610000             # Cr
 
Atoms # atomic
 
         1    1        0.000000000000       0.000000000000       0.000000000000
         2    2        1.779999715200       1.779999715200       0.000000000000
         3    3        0.000000000000       1.779999715200       1.779999715200
         4    1        1.779999715200       0.000000000000       1.779999715200
         5    2        3.560000178000       0.000000000000       0.000000000000
         6    2        5.339999893200       1.779999715200       0.000000000000
         7    2        3.560000178000       1.779999715200       1.779999715200
         8    2        5.339999893200       0.000000000000       1.779999715200
         9    2        7.120000356000       0.000000000000       0.000000000000
        10    1        8.900000071200       1.779999715200       0.000000000000
        11    2        7.120000356000       1.779999715200       1.779999715200
        12    1        8.900000071200       0.000000000000       1.779999715200
        13    3       10.679999786400       0.000000000000       0.000000000000
        14    2       12.460000249200       1.779999715200       0.000000000000
        15    1       10.679999786400       1.779999715200       1.779999715200
        16    3       12.460000249200       0.000000000000       1.779999715200
        17    2       14.239999964400       0.000000000000       0.000000000000
        18    2       16.019999679600       1.779999715200       0.000000000000
        19    2       14.239999964400       1.779999715200       1.779999715200
        20    2       16.019999679600       0.000000000000       1.779999715200
        21    2       17.800000142400       0.000000000000       0.000000000000
        22    2       19.579999857600       1.779999715200       0.000000000000
        23    3       17.800000142400       1.779999715200       1.779999715200
        24    3       19.579999857600       0.000000000000       1.779999715200
        25    2       21.360000320400       0.000000000000       0.000000000000
        26    3       23.140000035600       1.779999715200       0.000000000000
        27    3       21.360000320400       1.779999715200       1.779999715200
        28    2       23.140000035600       0.000000000000       1.779999715200
        29    2       24.919999750800       0.000000000000       0.000000000000
        30    2       26.700000213600       1.779999715200       0.000000000000
        31    2       24.919999750800       1.779999715200       1.779999715200
        32    2       26.700000213600       0.000000000000       1.779999715200
        33    3       28.479999928800       0.000000000000       0.000000000000
        34    2       30.259999644000       1.779999715200       0.000000000000
        35    2       28.479999928800       1.779999715200       1.779999715200
        36    2       30.259999644000       0.000000000000       1.779999715200
        37    2       32.040000106800       0.000000000000       0.000000000000
        38    2       33.819999822000       1.779999715200       0.000000000000
        39    2       32.040000106800       1.779999715200       1.779999715200
        40    3       33.819999822000       0.000000000000       1.779999715200
        41    2       35.600000284800       0.000000000000       0.000000000000
        42    3       37.380000000000       1.779999715200       0.000000000000
        43    2       35.600000284800       1.779999715200       1.779999715200
        44    3       37.380000000000       0.000000000000       1.779999715200
        45    2       39.159999715200       0.000000000000       0.000000000000
        46    2       40.940000178000       1.779999715200       0.000000000000
        47    2       39.159999715200       1.779999715200       1.779999715200
        48    2       40.940000178000       0.000000000000       1.779999715200
        49    2       42.719999893200       0.000000000000       0.000000000000
        50    2       44.500000356000       1.779999715200       0.000000000000
        51    2       42.719999893200       1.779999715200       1.779999715200
        52    2       44.500000356000       0.000000000000       1.779999715200
        53    2       46.280000071200       0.000000000000       0.000000000000
        54    3       48.059999786400       1.779999715200       0.000000000000
        55    3       46.280000071200       1.779999715200       1.779999715200
        56    2       48.059999786400       0.000000000000       1.779999715200
        57    3       49.840000249200       0.000000000000       0.000000000000
        58    3       51.619999964400       1.779999715200       0.000000000000
        59    2       49.840000249200       1.779999715200       1.779999715200
        60    2       51.619999964400       0.000000000000       1.779999715200
        61    2       53.399999679600       0.000000000000       0.000000000000
        62    2       55.180000142400       1.779999715200       0.000000000000
        63    2       53.399999679600       1.779999715200       1.779999715200
        64    2       55.180000142400       0.000000000000       1.779999715200
        65    1       56.959999857600       0.000000000000       0.000000000000
        66    2       58.740000320400       1.779999715200       0.000000000000
        67    2       56.959999857600       1.779999715200       1.779999715200
        68    1       58.740000320400       0.000000000000       1.779999715200
        69    2       60.520000035600       0.000000000000       0.000000000000
        70    3       62.299999750800       1.779999715200       0.000000000000
        71    2       60.520000035600       1.779999715200       1.779999715200
        72    3       62.299999750800       0.000000000000       1.779999715200
        73    2       64.080000213600       0.000000000000       0.000000000000
        74    2       65.859999928800       1.779999715200       0.000000000000
        75    2       64.080000213600       1.779999715200       1.779999715200
        76    1       65.859999928800       0.000000000000       1.779999715200
        77    2       67.639999644000       0.000000000000       0.000000000000
        78    3       69.420000106800       1.779999715200       0.000000000000
        79    2       67.639999644000       1.779999715200       1.779999715200
        80    3       69.420000106800       0.000000000000       1.779999715200
        81    2       71.199999822000       0.000000000000       0.000000000000
        82    2       72.980000284800       1.779999715200       0.000000000000
        83    3       71.199999822000       1.779999715200       1.779999715200
        84    1       72.980000284800       0.000000000000       1.779999715200
        85    1        0.000000000000       3.560000178000       0.000000000000
        86    2        1.779999715200       5.339999893200       0.000000000000
        87    3        0.000000000000       5.339999893200       1.779999715200
        88    2        1.779999715200       3.560000178000       1.779999715200
        89    2        3.560000178000       3.560000178000       0.000000000000
        90    3        5.339999893200       5.339999893200       0.000000000000
        91    3        3.560000178000       5.339999893200       1.779999715200
        92    2        5.339999893200       3.560000178000       1.779999715200
        93    2        7.120000356000       3.560000178000       0.000000000000
        94    2        8.900000071200       5.339999893200       0.000000000000
        95    2        7.120000356000       5.339999893200       1.779999715200
        96    3        8.900000071200       3.560000178000       1.779999715200
        97    3       10.679999786400       3.560000178000       0.000000000000
        98    3       12.460000249200       5.339999893200       0.000000000000
        99    3       10.679999786400       5.339999893200       1.779999715200
       100    2       12.460000249200       3.560000178000       1.779999715200
       101    2       14.239999964400       3.560000178000       0.000000000000
       102    3       16.019999679600       5.339999893200       0.000000000000
       103    2       14.239999964400       5.339999893200       1.779999715200
       104    3       16.019999679600       3.560000178000       1.779999715200
       105    2       17.800000142400       3.560000178000       0.000000000000
       106    2       19.579999857600       5.339999893200       0.000000000000
       107    2       17.800000142400       5.339999893200       1.779999715200
       108    2       19.579999857600       3.560000178000       1.779999715200
       109    2       21.360000320400       3.560000178000       0.000000000000
       110    2       23.140000035600       5.339999893200       0.000000000000
       111    2       21.360000320400       5.339999893200       1.779999715200
       112    2       23.140000035600       3.560000178000       1.779999715200
       113    3       24.919999750800       3.560000178000       0.000000000000
       114    2       26.700000213600       5.339999893200       0.000000000000
       115    2       24.919999750800       5.339999893200       1.779999715200
       116    2       26.700000213600       3.560000178000       1.779999715200
       117    1       28.479999928800       3.560000178000       0.000000000000
       118    2       30.259999644000       5.339999893200       0.000000000000
       119    2       28.479999928800       5.339999893200       1.779999715200
       120    3       30.259999644000       3.560000178000       1.779999715200
       121    2       32.040000106800       3.560000178000       0.000000000000
       122    1       33.819999822000       5.339999893200       0.000000000000
       123    2       32.040000106800       5.339999893200       1.779999715200
       124    2       33.819999822000       3.560000178000       1.779999715200
       125    2       35.600000284800       3.560000178000       0.000000000000
       126    1       37.380000000000       5.339999893200       0.000000000000
       127    3       35.600000284800       5.339999893200       1.779999715200
       128    1       37.380000000000       3.560000178000       1.779999715200
       129    2       39.159999715200       3.560000178000       0.000000000000
       130    2       40.940000178000       5.339999893200       0.000000000000
       131    2       39.159999715200       5.339999893200       1.779999715200
       132    2       40.940000178000       3.560000178000       1.779999715200
       133    2       42.719999893200       3.560000178000       0.000000000000
       134    3       44.500000356000       5.339999893200       0.000000000000
       135    2       42.719999893200       5.339999893200       1.779999715200
       136    2       44.500000356000       3.560000178000       1.779999715200
       137    2       46.280000071200       3.560000178000       0.000000000000
       138    2       48.059999786400       5.339999893200       0.000000000000
       139    2       46.280000071200       5.339999893200       1.779999715200
       140    2       48.059999786400       3.560000178000       1.779999715200
       141    2       49.840000249200       3.560000178000       0.000000000000
       142    2       51.619999964400       5.339999893200       0.000000000000
       143    2       49.840000249200       5.339999893200       1.779999715200
       144    2       51.619999964400       3.560000178000       1.779999715200
       145    2       53.399999679600       3.560000178000       0.000000000000
       146    3       55.180000142400       5.339999893200       0.000000000000
       147    2       53.399999679600       5.339999893200       1.779999715200
       148    2       55.180000142400       3.560000178000       1.779999715200
       149    3       56.959999857600       3.560000178000       0.000000000000
       150    2       58.740000320400       5.339999893200       0.000000000000
       151    2       56.959999857600       5.339999893200       1.779999715200
       152    2       58.740000320400       3.560000178000       1.779999715200
       153    2       60.520000035600       3.560000178000       0.000000000000
       154    2       62.299999750800       5.339999893200       0.000000000000
       155    2       60.520000035600       5.339999893200       1.779999715200
       156    2       62.299999750800       3.560000178000       1.779999715200
       157    3       64.080000213600       3.560000178000       0.000000000000
       158    3       65.859999928800       5.339999893200       0.000000000000
       159    3       64.080000213600       5.339999893200       1.779999715200
       160    2       65.859999928800       3.560000178000       1.779999715200
       161    2       67.639999644000       3.560000178000       0.000000000000
       162    3       69.420000106800       5.339999893200       0.000000000000
       163    2       67.639999644000       5.339999893200       1.779999715200
       164    2       69.420000106800       3.560000178000       1.779999715200
       165    3       71.199999822000       3.560000178000       0.000000000000
       166    3       72.980000284800       5.339999893200       0.000000000000
       167    3       71.199999822000       5.339999893200       1.779999715200
       168    3       72.980000284800       3.560000178000       1.779999715200
       169    2        0.000000000000       7.120000356000       0.000000000000
       170    2        1.779999715200       8.900000071200       0.000000000000
       171    2        0.000000000000       8.900000071200       1.779999715200
       172    2        1.779999715200       7.120000356000       1.779999715200
       173    2        3.560000178000       7.120000356000       0.000000000000
       174    2        5.339999893200       8.900000071200       0.000000000000
       175    2        3.560000178000       8.900000071200       1.779999715200
       176    2        5.339999893200       7.120000356000       1.779999715200
       177    2        7.120000356000       7.120000356000       0.000000000000
       178    2        8.900000071200       8.900000071200       0.000000000000
       179    2        7.120000356000       8.900000071200       1.779999715200
       180    2        8.900000071200       7.120000356000       1.779999715200
       181    2       10.679999786400       7.120000356000       0.000000000000
       182    1       12.460000249200       8.900000071200       0.000000000000
       183    2       10.679999786400       8.900000071200       1.779999715200
       184    2       12.460000249200       7.120000356000       1.779999715200
       185    3       14.239999964400       7.120000356000       0.000000000000
       186    2       16.019999679600       8.900000071200       0.000000000000
       187    2       14.239999964400       8.900000071200       1.779999715200
       188    3       16.019999679600       7.120000356000       1.779999715200
       189    2       17.800000142400       7.120000356000       0.000000000000
       190    2       19.579999857600       8.900000071200       0.000000000000
       191    1       17.800000142400       8.900000071200       1.779999715200
       192    2       19.579999857600       7.120000356000       1.779999715200
       193    2       21.360000320400       7.120000356000       0.000000000000
       194    2       23.140000035600       8.900000071200       0.000000000000
       195    3       21.360000320400       8.900000071200       1.779999715200
       196    2       23.140000035600       7.120000356000       1.779999715200
       197    2       24.919999750800       7.120000356000       0.000000000000
       198    2       26.700000213600       8.900000071200       0.000000000000
       199    3       24.919999750800       8.900000071200       1.779999715200
       200    2       26.700000213600       7.120000356000       1.779999715200
       201    3       28.479999928800       7.120000356000       0.000000000000
       202    3       30.259999644000       8.900000071200       0.000000000000
       203    2       28.479999928800       8.900000071200       1.779999715200
       204    2       30.259999644000       7.120000356000       1.779999715200
       205    2       32.040000106800       7.120000356000       0.000000000000
       206    3       33.819999822000       8.900000071200       0.000000000000
       207    2       32.040000106800       8.900000071200       1.779999715200
       208    2       33.819999822000       7.120000356000       1.779999715200
       209    1       35.600000284800       7.120000356000       0.000000000000
       210    2       37.380000000000       8.900000071200       0.000000000000
       211    2       35.600000284800       8.900000071200       1.779999715200
       212    2       37.380000000000       7.120000356000       1.779999715200
       213    3       39.159999715200       7.120000356000       0.000000000000
       214    2       40.940000178000       8.900000071200       0.000000000000
       215    3       39.159999715200       8.900000071200       1.779999715200
       216    3       40.940000178000       7.120000356000       1.779999715200
       217    2       42.719999893200       7.120000356000       0.000000000000
       218    3       44.500000356000       8.900000071200       0.000000000000
       219    3       42.719999893200       8.900000071200       1.779999715200
       220    2       44.500000356000       7.120000356000       1.779999715200
       221    3       46.280000071200       7.120000356000       0.000000000000
       222    2       48.059999786400       8.900000071200       0.000000000000
       223    2       46.280000071200       8.900000071200       1.779999715200
       224    2       48.059999786400       7.120000356000       1.779999715200
       225    2       49.840000249200       7.120000356000       0.000000000000
       226    2       51.619999964400       8.900000071200       0.000000000000
       227    2       49.840000249200       8.900000071200       1.779999715200
       228    1       51.619999964400       7.120000356000       1.779999715200
       229    3       53.399999679600       7.120000356000       0.000000000000
       230    2       55.180000142400       8.900000071200       0.000000000000
       231    2       53.399999679600       8.900000071200       1.779999715200
       232    3       55.180000142400       7.120000356000       1.779999715200
       233    2       56.959999857600       7.120000356000       0.000000000000
       234    3       58.740000320400       8.900000071200       0.000000000000
       235    3       56.959999857600       8.900000071200       1.779999715200
       236    2       58.740000320400       7.120000356000       1.779999715200
       237    2       60.520000035600       7.120000356000       0.000000000000
       238    2       62.299999750800       8.900000071200       0.000000000000
       239    2       60.520000035600       8.900000071200       1.779999715200
       240    2       62.299999750800       7.120000356000       1.779999715200
       241    3       64.080000213600       7.120000356000       0.000000000000
       242    2       65.859999928800       8.900000071200       0.000000000000
       243    2       64.080000213600       8.900000071200       1.779999715200
       244    2       65.859999928800       7.120000356000       1.779999715200
       245    2       67.639999644000       7.120000356000       0.000000000000
       246    3       69.420000106800       8.900000071200       0.000000000000
       247    2       67.639999644000       8.900000071200       1.779999715200
       248    3       69.420000106800       7.120000356000       1.779999715200
       249    2       71.199999822000       7.120000356000       0.000000000000
       250    2       72.980000284800       8.900000071200       0.000000000000
       251    2       71.199999822000       8.900000071200       1.779999715200
       252    3       72.980000284800       7.120000356000       1.779999715200
       253    3        0.000000000000      10.679999786400       0.000000000000
       254    3        1.779999715200      12.460000249200       0.000000000000
       255    2        0.000000000000      12.460000249200       1.779999715200
       256    2        1.779999715200      10.679999786400       1.779999715200
       257    1        3.560000178000      10.679999786400       0.000000000000
       258    2        5.339999893200      12.460000249200       0.000000000000
       259    2        3.560000178000      12.460000249200       1.779999715200
       260    2        5.339999893200      10.679999786400       1.779999715200
       261    2        7.120000356000      10.679999786400       0.000000000000
       262    1        8.900000071200      12.460000249200       0.000000000000
       263    2        7.120000356000      12.460000249200       1.779999715200
       264    2        8.900000071200      10.679999786400       1.779999715200
       265    3       10.679999786400      10.679999786400       0.000000000000
       266    2       12.460000249200      12.460000249200       0.000000000000
       267    2       10.679999786400      12.460000249200       1.779999715200
       268    2       12.460000249200      10.679999786400       1.779999715200
       269    2       14.239999964400      10.679999786400       0.000000000000
       270    2       16.019999679600      12.460000249200       0.000000000000
       271    2       14.239999964400      12.460000249200       1.779999715200
       272    2       16.019999679600      10.679999786400       1.779999715200
       273    1       17.800000142400      10.679999786400       0.000000000000
       274    3       19.579999857600      12.460000249200       0.000000000000
       275    3       17.800000142400      12.460000249200       1.779999715200
       276    2       19.579999857600      10.679999786400       1.779999715200
       277    3       21.360000320400      10.679999786400       0.000000000000
       278    3       23.140000035600      12.460000249200       0.000000000000
       279    2       21.360000320400      12.460000249200       1.779999715200
       280    2       23.140000035600      10.679999786400       1.779999715200
       281    3       24.919999750800      10.679999786400       0.000000000000
       282    2       26.700000213600      12.460000249200       0.000000000000
       283    2       24.919999750800      12.460000249200       1.779999715200
       284    3       26.700000213600      10.679999786400       1.779999715200
       285    3       28.479999928800      10.679999786400       0.000000000000
       286    3       30.259999644000      12.460000249200       0.000000000000
       287    2       28.479999928800      12.460000249200       1.779999715200
       288    2       30.259999644000      10.679999786400       1.779999715200
       289    3       32.040000106800      10.679999786400       0.000000000000
       290    2       33.819999822000      12.460000249200       0.000000000000
       291    2       32.040000106800      12.460000249200       1.779999715200
       292    2       33.819999822000      10.679999786400       1.779999715200
       293    2       35.600000284800      10.679999786400       0.000000000000
       294    3       37.380000000000      12.460000249200       0.000000000000
       295    2       35.600000284800      12.460000249200       1.779999715200
       296    2       37.380000000000      10.679999786400       1.779999715200
       297    2       39.159999715200      10.679999786400       0.000000000000
       298    3       40.940000178000      12.460000249200       0.000000000000
       299    3       39.159999715200      12.460000249200       1.779999715200
       300    2       40.940000178000      10.679999786400       1.779999715200
       301    3       42.719999893200      10.679999786400       0.000000000000
       302    3       44.500000356000      12.460000249200       0.000000000000
       303    2       42.719999893200      12.460000249200       1.779999715200
       304    2       44.500000356000      10.679999786400       1.779999715200
       305    2       46.280000071200      10.679999786400       0.000000000000
       306    3       48.059999786400      12.460000249200       0.000000000000
       307    2       46.280000071200      12.460000249200       1.779999715200
       308    2       48.059999786400      10.679999786400       1.779999715200
       309    1       49.840000249200      10.679999786400       0.000000000000
       310    2       51.619999964400      12.460000249200       0.000000000000
       311    1       49.840000249200      12.460000249200       1.779999715200
       312    3       51.619999964400      10.679999786400       1.779999715200
       313    2       53.399999679600      10.679999786400       0.000000000000
       314    3       55.180000142400      12.460000249200       0.000000000000
       315    2       53.399999679600      12.460000249200       1.779999715200
       316    1       55.180000142400      10.679999786400       1.779999715200
       317    2       56.959999857600      10.679999786400       0.000000000000
       318    3       58.740000320400      12.460000249200       0.000000000000
       319    1       56.959999857600      12.460000249200       1.779999715200
       320    2       58.740000320400      10.679999786400       1.779999715200
       321    2       60.520000035600      10.679999786400       0.000000000000
       322    3       62.299999750800      12.460000249200       0.000000000000
       323    2       60.520000035600      12.460000249200       1.779999715200
       324    2       62.299999750800      10.679999786400       1.779999715200
       325    2       64.080000213600      10.679999786400       0.000000000000
       326    3       65.859999928800      12.460000249200       0.000000000000
       327    3       64.080000213600      12.460000249200       1.779999715200
       328    2       65.859999928800      10.679999786400       1.779999715200
       329    1       67.639999644000      10.679999786400       0.000000000000
       330    2       69.420000106800      12.460000249200       0.000000000000
       331    3       67.639999644000      12.460000249200       1.779999715200
       332    2       69.420000106800      10.679999786400       1.779999715200
       333    2       71.199999822000      10.679999786400       0.000000000000
       334    3       72.980000284800      12.460000249200       0.000000000000
       335    2       71.199999822000      12.460000249200       1.779999715200
       336    1       72.980000284800      10.679999786400       1.779999715200
       337    1        0.000000000000      14.239999964400       0.000000000000
       338    2        1.779999715200      16.019999679600       0.000000000000
       339    3        0.000000000000      16.019999679600       1.779999715200
       340    3        1.779999715200      14.239999964400       1.779999715200
       341    2        3.560000178000      14.239999964400       0.000000000000
       342    3        5.339999893200      16.019999679600       0.000000000000
       343    2        3.560000178000      16.019999679600       1.779999715200
       344    1        5.339999893200      14.239999964400       1.779999715200
       345    2        7.120000356000      14.239999964400       0.000000000000
       346    2        8.900000071200      16.019999679600       0.000000000000
       347    3        7.120000356000      16.019999679600       1.779999715200
       348    1        8.900000071200      14.239999964400       1.779999715200
       349    2       10.679999786400      14.239999964400       0.000000000000
       350    3       12.460000249200      16.019999679600       0.000000000000
       351    3       10.679999786400      16.019999679600       1.779999715200
       352    1       12.460000249200      14.239999964400       1.779999715200
       353    2       14.239999964400      14.239999964400       0.000000000000
       354    2       16.019999679600      16.019999679600       0.000000000000
       355    2       14.239999964400      16.019999679600       1.779999715200
       356    2       16.019999679600      14.239999964400       1.779999715200
       357    2       17.800000142400      14.239999964400       0.000000000000
       358    2       19.579999857600      16.019999679600       0.000000000000
       359    3       17.800000142400      16.019999679600       1.779999715200
       360    2       19.579999857600      14.239999964400       1.779999715200
       361    2       21.360000320400      14.239999964400       0.000000000000
       362    3       23.140000035600      16.019999679600       0.000000000000
       363    3       21.360000320400      16.019999679600       1.779999715200
       364    2       23.140000035600      14.239999964400       1.779999715200
       365    2       24.919999750800      14.239999964400       0.000000000000
       366    2       26.700000213600      16.019999679600       0.000000000000
       367    2       24.919999750800      16.019999679600       1.779999715200
       368    2       26.700000213600      14.239999964400       1.779999715200
       369    2       28.479999928800      14.239999964400       0.000000000000