ITEM: TIMESTEP
0
ITEM: NUMBER OF ATOMS
8141
ITEM: BOX BOUNDS ss ss pp
-1.1142771119107796e-02 1.1143885396219706e+02
-7.7199382861623264e-03 7.7207102799909421e+01
-2.7856927797769487e-01 2.7856927797769487e-01
ITEM: ATOMS id type xs ys zs
1 4 9.998e-05 9.998e-05 0.5
2 4 0.00509898 0.0125975 0.5
3 4 0.010098 9.998e-05 0.5
4 4 0.015097 0.0125975 0.5
5 4 0.020096 9.998e-05 0.5
6 4 0.025095 0.0125975 0.5
7 4 0.030094 9.998e-05 0.5
8 4 0.035093 0.0125975 0.5
9 4 0.040092 9.998e-05 0.5
10 4 0.045091 0.0125975 0.5
11 4 0.05009 9.998e-05 0.5
12 4 0.055089 0.0125975 0.5
13 4 0.060088 9.998e-05 0.5
14 4 0.065087 0.0125975 0.5
15 4 0.070086 9.998e-05 0.5
16 4 0.075085 0.0125975 0.5
17 4 0.080084 9.998e-05 0.5
18 4 0.085083 0.0125975 0.5
19 4 0.090082 9.998e-05 0.5
20 4 0.095081 0.0125975 0.5
21 4 0.10008 9.998e-05 0.5
22 4 0.105079 0.0125975 0.5
23 4 0.110078 9.998e-05 0.5
24 4 0.115077 0.0125975 0.5
25 4 0.120076 9.998e-05 0.5
26 4 0.125075 0.0125975 0.5
27 4 0.130074 9.998e-05 0.5
28 4 0.135073 0.0125975 0.5
29 4 0.140072 9.998e-05 0.5
30 4 0.145071 0.0125975 0.5
31 4 0.15007 9.998e-05 0.5
32 4 0.155069 0.0125975 0.5
33 4 0.160068 9.998e-05 0.5
34 4 0.165067 0.0125975 0.5
35 4 0.170066 9.998e-05 0.5
36 4 0.175065 0.0125975 0.5
37 4 0.180064 9.998e-05 0.5
38 4 0.185063 0.0125975 0.5
39 4 0.190062 9.998e-05 0.5
40 4 0.195061 0.0125975 0.5
41 4 0.20006 9.998e-05 0.5
42 4 0.205059 0.0125975 0.5
43 4 0.210058 9.998e-05 0.5
44 4 0.215057 0.0125975 0.5
45 4 0.220056 9.998e-05 0.5
46 4 0.225055 0.0125975 0.5
47 4 0.230054 9.998e-05 0.5
48 4 0.235053 0.0125975 0.5
49 4 0.240052 9.998e-05 0.5
50 4 0.245051 0.0125975 0.5
51 4 0.25005 9.998e-05 0.5
52 4 0.255049 0.0125975 0.5
53 4 0.260048 9.998e-05 0.5
54 4 0.265047 0.0125975 0.5
55 4 0.270046 9.998e-05 0.5
56 4 0.275045 0.0125975 0.5
57 4 0.280044 9.998e-05 0.5
58 4 0.285043 0.0125975 0.5
59 4 0.290042 9.998e-05 0.5
60 4 0.295041 0.0125975 0.5
61 4 0.30004 9.998e-05 0.5
62 4 0.305039 0.0125975 0.5
63 4 0.310038 9.998e-05 0.5
64 4 0.315037 0.0125975 0.5
65 4 0.320036 9.998e-05 0.5
66 4 0.325035 0.0125975 0.5
67 4 0.330034 9.998e-05 0.5
68 4 0.335033 0.0125975 0.5
69 4 0.340032 9.998e-05 0.5
70 4 0.345031 0.0125975 0.5
71 4 0.35003 9.998e-05 0.5
72 4 0.355029 0.0125975 0.5
73 4 0.360028 9.998e-05 0.5
74 4 0.365027 0.0125975 0.5
75 4 0.370026 9.998e-05 0.5
76 4 0.375025 0.0125975 0.5
77 4 0.380024 9.998e-05 0.5
78 4 0.385023 0.0125975 0.5
79 4 0.390022 9.998e-05 0.5
80 4 0.395021 0.0125975 0.5
81 4 0.40002 9.998e-05 0.5
82 4 0.405019 0.0125975 0.5
83 4 0.410018 9.998e-05 0.5
84 4 0.415017 0.0125975 0.5
85 4 0.420016 9.998e-05 0.5
86 4 0.425015 0.0125975 0.5
87 4 0.430014 9.998e-05 0.5
88 4 0.435013 0.0125975 0.5
89 4 0.440012 9.998e-05 0.5
90 4 0.445011 0.0125975 0.5
91 4 0.45001 9.998e-05 0.5
92 4 0.455009 0.0125975 0.5
93 4 0.460008 9.998e-05 0.5
94 4 0.465007 0.0125975 0.5
95 4 0.470006 9.998e-05 0.5
96 4 0.475005 0.0125975 0.5
97 4 0.480004 9.998e-05 0.5
98 4 0.485003 0.0125975 0.5
99 4 0.490002 9.998e-05 0.5
100 4 0.495001 0.0125975 0.5
101 4 0.5 9.998e-05 0.5
102 4 0.504999 0.0125975 0.5
103 4 0.509998 9.998e-05 0.5
104 4 0.514997 0.0125975 0.5
105 4 0.519996 9.998e-05 0.5
106 4 0.524995 0.0125975 0.5
107 4 0.529994 9.998e-05 0.5
108 4 0.534993 0.0125975 0.5
109 4 0.539992 9.998e-05 0.5
110 4 0.544991 0.0125975 0.5
111 4 0.54999 9.998e-05 0.5
112 4 0.554989 0.0125975 0.5
113 4 0.559988 9.998e-05 0.5
114 4 0.564987 0.0125975 0.5
115 4 0.569986 9.998e-05 0.5
116 4 0.574985 0.0125975 0.5
117 4 0.579984 9.998e-05 0.5
118 4 0.584983 0.0125975 0.5
119 4 0.589982 9.998e-05 0.5
120 4 0.594981 0.0125975 0.5
121 4 0.59998 9.998e-05 0.5
122 4 0.604979 0.0125975 0.5
123 4 0.609978 9.998e-05 0.5
124 4 0.614977 0.0125975 0.5
125 4 0.619976 9.998e-05 0.5
126 4 0.624975 0.0125975 0.5
127 4 0.629974 9.998e-05 0.5
128 4 0.634973 0.0125975 0.5
129 4 0.639972 9.998e-05 0.5
130 4 0.644971 0.0125975 0.5
131 4 0.64997 9.998e-05 0.5
132 4 0.654969 0.0125975 0.5
133 4 0.659968 9.998e-05 0.5
134 4 0.664967 0.0125975 0.5
135 4 0.669966 9.998e-05 0.5
136 4 0.674965 0.0125975 0.5
137 4 0.679964 9.998e-05 0.5
138 4 0.684963 0.0125975 0.5
139 4 0.689962 9.998e-05 0.5
140 4 0.694961 0.0125975 0.5
141 4 0.69996 9.998e-05 0.5
142 4 0.704959 0.0125975 0.5
143 4 0.709958 9.998e-05 0.5
144 4 0.714957 0.0125975 0.5
145 4 0.719956 9.998e-05 0.5
146 4 0.724955 0.0125975 0.5
147 4 0.729954 9.998e-05 0.5
148 4 0.734953 0.0125975 0.5
149 4 0.739952 9.998e-05 0.5
150 4 0.744951 0.0125975 0.5
151 4 0.74995 9.998e-05 0.5
152 4 0.754949 0.0125975 0.5
153 4 0.759948 9.998e-05 0.5
154 4 0.764947 0.0125975 0.5
155 4 0.769946 9.998e-05 0.5
156 4 0.774945 0.0125975 0.5
157 4 0.779944 9.998e-05 0.5
158 4 0.784943 0.0125975 0.5
159 4 0.789942 9.998e-05 0.5
160 4 0.794941 0.0125975 0.5
161 4 0.79994 9.998e-05 0.5
162 4 0.804939 0.0125975 0.5
163 4 0.809938 9.998e-05 0.5
164 4 0.814937 0.0125975 0.5
165 4 0.819936 9.998e-05 0.5
166 4 0.824935 0.0125975 0.5
167 4 0.829934 9.998e-05 0.5
168 4 0.834933 0.0125975 0.5
169 4 0.839932 9.998e-05 0.5
170 4 0.844931 0.0125975 0.5
171 4 0.84993 9.998e-05 0.5
172 4 0.854929 0.0125975 0.5
173 4 0.859928 9.998e-05 0.5
174 4 0.864927 0.0125975 0.5
175 4 0.869926 9.998e-05 0.5
176 4 0.874925 0.0125975 0.5
177 4 0.879924 9.998e-05 0.5
178 4 0.884923 0.0125975 0.5
179 4 0.889922 9.998e-05 0.5
180 4 0.894921 0.0125975 0.5
181 4 0.89992 9.998e-05 0.5
182 4 0.904919 0.0125975 0.5
183 4 0.909918 9.998e-05 0.5
184 4 0.914917 0.0125975 0.5
185 4 0.919916 9.998e-05 0.5
186 4 0.924915 0.0125975 0.5
187 4 0.929914 9.998e-05 0.5
188 4 0.934913 0.0125975 0.5
189 4 0.939912 9.998e-05 0.5
190 4 0.944911 0.0125975 0.5
191 4 0.94991 9.998e-05 0.5
192 4 0.954909 0.0125975 0.5
193 4 0.959908 9.998e-05 0.5
194 4 0.964907 0.0125975 0.5
195 4 0.969906 9.998e-05 0.5
196 4 0.974905 0.0125975 0.5
197 4 0.979904 9.998e-05 0.5
198 4 0.984903 0.0125975 0.5
199 4 0.989902 9.998e-05 0.5
200 4 0.994901 0.0125975 0.5
201 4 0.9999 9.998e-05 0.5
202 4 9.998e-05 0.025095 0.5
204 4 0.010098 0.025095 0.5
206 4 0.020096 0.025095 0.5
208 4 0.030094 0.025095 0.5
210 4 0.040092 0.025095 0.5
212 4 0.05009 0.025095 0.5
214 4 0.060088 0.025095 0.5
216 4 0.070086 0.025095 0.5
218 4 0.080084 0.025095 0.5
220 4 0.090082 0.025095 0.5
222 4 0.10008 0.025095 0.5
224 4 0.110078 0.025095 0.5
226 4 0.120076 0.025095 0.5
228 4 0.130074 0.025095 0.5
230 4 0.140072 0.025095 0.5
232 4 0.15007 0.025095 0.5
234 4 0.160068 0.025095 0.5
236 4 0.170066 0.025095 0.5
238 4 0.180064 0.025095 0.5
240 4 0.190062 0.025095 0.5
242 4 0.20006 0.025095 0.5
244 4 0.210058 0.025095 0.5
246 4 0.220056 0.025095 0.5
248 4 0.230054 0.025095 0.5
250 4 0.240052 0.025095 0.5
252 4 0.25005 0.025095 0.5
254 4 0.260048 0.025095 0.5
256 4 0.270046 0.025095 0.5
258 4 0.280044 0.025095 0.5
260 4 0.290042 0.025095 0.5
262 4 0.30004 0.025095 0.5
264 4 0.310038 0.025095 0.5
266 4 0.320036 0.025095 0.5
268 4 0.330034 0.025095 0.5
270 4 0.340032 0.025095 0.5
272 4 0.35003 0.025095 0.5
274 4 0.360028 0.025095 0.5
276 4 0.370026 0.025095 0.5
278 4 0.380024 0.025095 0.5
280 4 0.390022 0.025095 0.5
282 4 0.40002 0.025095 0.5
284 4 0.410018 0.025095 0.5
286 4 0.420016 0.025095 0.5
288 4 0.430014 0.025095 0.5
290 4 0.440012 0.025095 0.5
292 4 0.45001 0.025095 0.5
294 4 0.460008 0.025095 0.5
296 4 0.470006 0.025095 0.5
298 4 0.480004 0.025095 0.5
300 4 0.490002 0.025095 0.5
302 4 0.5 0.025095 0.5
304 4 0.509998 0.025095 0.5
306 4 0.519996 0.025095 0.5
308 4 0.529994 0.025095 0.5
310 4 0.539992 0.025095 0.5
312 4 0.54999 0.025095 0.5
314 4 0.559988 0.025095 0.5
316 4 0.569986 0.025095 0.5
318 4 0.579984 0.025095 0.5
320 4 0.589982 0.025095 0.5
322 4 0.59998 0.025095 0.5
324 4 0.609978 0.025095 0.5
326 4 0.619976 0.025095 0.5
328 4 0.629974 0.025095 0.5
330 4 0.639972 0.025095 0.5
332 4 0.64997 0.025095 0.5
334 4 0.659968 0.025095 0.5
336 4 0.669966 0.025095 0.5
338 4 0.679964 0.025095 0.5
340 4 0.689962 0.025095 0.5
342 4 0.69996 0.025095 0.5
344 4 0.709958 0.025095 0.5
346 4 0.719956 0.025095 0.5
348 4 0.729954 0.025095 0.5
350 4 0.739952 0.025095 0.5
352 4 0.74995 0.025095 0.5
354 4 0.759948 0.025095 0.5
356 4 0.769946 0.025095 0.5
358 4 0.779944 0.025095 0.5
360 4 0.789942 0.025095 0.5
362 4 0.79994 0.025095 0.5
364 4 0.809938 0.025095 0.5
366 4 0.819936 0.025095 0.5
368 4 0.829934 0.025095 0.5
370 4 0.839932 0.025095 0.5
372 4 0.84993 0.025095 0.5
374 4 0.859928 0.025095 0.5
376 4 0.869926 0.025095 0.5
378 4 0.879924 0.025095 0.5
380 4 0.889922 0.025095 0.5
382 4 0.89992 0.025095 0.5
384 4 0.909918 0.025095 0.5
386 4 0.919916 0.025095 0.5
388 4 0.929914 0.025095 0.5
390 4 0.939912 0.025095 0.5
392 4 0.94991 0.025095 0.5
394 4 0.959908 0.025095 0.5
396 4 0.969906 0.025095 0.5
398 4 0.979904 0.025095 0.5
400 4 0.989902 0.025095 0.5
402 4 0.9999 0.025095 0.5
203 3 0.00509898 0.0375925 0.5
403 3 9.998e-05 0.05009 0.5
405 3 0.010098 0.05009 0.5
205 3 0.015097 0.0375925 0.5
207 3 0.025095 0.0375925 0.5
407 3 0.020096 0.05009 0.5
209 3 0.035093 0.0375925 0.5
409 3 0.030094 0.05009 0.5
211 3 0.045091 0.0375925 0.5
411 3 0.040092 0.05009 0.5
413 3 0.05009 0.05009 0.5
213 3 0.055089 0.0375925 0.5
415 3 0.060088 0.05009 0.5
215 3 0.065087 0.0375925 0.5
217 3 0.075085 0.0375925 0.5
417 3 0.070086 0.05009 0.5
219 3 0.085083 0.0375925 0.5
419 3 0.080084 0.05009 0.5
221 3 0.095081 0.0375925 0.5
421 3 0.090082 0.05009 0.5
423 3 0.10008 0.05009 0.5
223 3 0.105079 0.0375925 0.5
425 3 0.110078 0.05009 0.5
225 3 0.115077 0.0375925 0.5
227 3 0.125075 0.0375925 0.5
427 3 0.120076 0.05009 0.5
229 3 0.135073 0.0375925 0.5
429 3 0.130074 0.05009 0.5
231 3 0.145071 0.0375925 0.5
431 3 0.140072 0.05009 0.5
433 3 0.15007 0.05009 0.5
233 3 0.155069 0.0375925 0.5
435 3 0.160068 0.05009 0.5
235 3 0.165067 0.0375925 0.5
237 3 0.175065 0.0375925 0.5
437 3 0.170066 0.05009 0.5
239 3 0.185063 0.0375925 0.5
439 3 0.180064 0.05009 0.5
241 3 0.195061 0.0375925 0.5
441 3 0.190062 0.05009 0.5
443 3 0.20006 0.05009 0.5
243 1 0.205059 0.0375925 0.5
245 1 0.215057 0.0375925 0.5
445 1 0.210058 0.05009 0.5
247 1 0.225055 0.0375925 0.5
447 1 0.220056 0.05009 0.5
249 1 0.235053 0.0375925 0.5
449 1 0.230054 0.05009 0.5
451 1 0.240052 0.05009 0.5
251 1 0.245051 0.0375925 0.5
453 1 0.25005 0.05009 0.5
253 1 0.255049 0.0375925 0.5
255 1 0.265047 0.0375925 0.5
455 1 0.260048 0.05009 0.5
257 1 0.275045 0.0375925 0.5
457 1 0.270046 0.05009 0.5
259 1 0.285043 0.0375925 0.5
459 1 0.280044 0.05009 0.5
461 1 0.290042 0.05009 0.5
261 1 0.295041 0.0375925 0.5
463 1 0.30004 0.05009 0.5
263 1 0.305039 0.0375925 0.5
265 1 0.315037 0.0375925 0.5
465 1 0.310038 0.05009 0.5
267 1 0.325035 0.0375925 0.5
467 1 0.320036 0.05009 0.5
269 1 0.335033 0.0375925 0.5
469 1 0.330034 0.05009 0.5
471 1 0.340032 0.05009 0.5
271 1 0.345031 0.0375925 0.5
473 1 0.35003 0.05009 0.5
273 1 0.355029 0.0375925 0.5
275 1 0.365027 0.0375925 0.5
475 1 0.360028 0.05009 0.5
277 1 0.375025 0.0375925 0.5
477 1 0.370026 0.05009 0.5
279 1 0.385023 0.0375925 0.5
479 1 0.380024 0.05009 0.5
481 1 0.390022 0.05009 0.5
281 1 0.395021 0.0375925 0.5
283 1 0.405019 0.0375925 0.5
483 1 0.40002 0.05009 0.5
285 1 0.415017 0.0375925 0.5
485 1 0.410018 0.05009 0.5
287 1 0.425015 0.0375925 0.5
487 1 0.420016 0.05009 0.5
489 1 0.430014 0.05009 0.5
289 1 0.435013 0.0375925 0.5
491 1 0.440012 0.05009 0.5
291 1 0.445011 0.0375925 0.5
293 1 0.455009 0.0375925 0.5
493 1 0.45001 0.05009 0.5
295 1 0.465007 0.0375925 0.5
495 1 0.460008 0.05009 0.5
297 1 0.475005 0.0375925 0.5
497 1 0.470006 0.05009 0.5
499 1 0.480004 0.05009 0.5
299 1 0.485003 0.0375925 0.5
501 1 0.490002 0.05009 0.5
301 1 0.495001 0.0375925 0.5
303 1 0.504999 0.0375925 0.5
503 1 0.5 0.05009 0.5
305 1 0.514997 0.0375925 0.5
505 1 0.509998 0.05009 0.5
307 1 0.524995 0.0375925 0.5
507 1 0.519996 0.05009 0.5
509 1 0.529994 0.05009 0.5
309 1 0.534993 0.0375925 0.5
511 1 0.539992 0.05009 0.5
311 1 0.544991 0.0375925 0.5
313 1 0.554989 0.0375925 0.5
513 1 0.54999 0.05009 0.5
315 1 0.564987 0.0375925 0.5
515 1 0.559988 0.05009 0.5
317 1 0.574985 0.0375925 0.5
517 1 0.569986 0.05009 0.5
519 1 0.579984 0.05009 0.5
319 1 0.584983 0.0375925 0.5
521 1 0.589982 0.05009 0.5
321 1 0.594981 0.0375925 0.5
323 1 0.604979 0.0375925 0.5
523 1 0.59998 0.05009 0.5
325 1 0.614977 0.0375925 0.5
525 1 0.609978 0.05009 0.5
527 1 0.619976 0.05009 0.5
327 1 0.624975 0.0375925 0.5
529 1 0.629974 0.05009 0.5
329 1 0.634973 0.0375925 0.5
331 1 0.644971 0.0375925 0.5
531 1 0.639972 0.05009 0.5
333 1 0.654969 0.0375925 0.5
533 1 0.64997 0.05009 0.5
335 1 0.664967 0.0375925 0.5
535 1 0.659968 0.05009 0.5
537 1 0.669966 0.05009 0.5
337 1 0.674965 0.0375925 0.5
539 1 0.679964 0.05009 0.5
339 1 0.684963 0.0375925 0.5
341 1 0.694961 0.0375925 0.5
541 1 0.689962 0.05009 0.5
343 1 0.704959 0.0375925 0.5
543 1 0.69996 0.05009 0.5
345 1 0.714957 0.0375925 0.5
545 1 0.709958 0.05009 0.5
547 1 0.719956 0.05009 0.5
347 1 0.724955 0.0375925 0.5
549 1 0.729954 0.05009 0.5
349 1 0.734953 0.0375925 0.5
351 1 0.744951 0.0375925 0.5
551 1 0.739952 0.05009 0.5
353 1 0.754949 0.0375925 0.5
553 1 0.74995 0.05009 0.5
355 1 0.764947 0.0375925 0.5
555 1 0.759948 0.05009 0.5
557 1 0.769946 0.05009 0.5
357 1 0.774945 0.0375925 0.5
559 1 0.779944 0.05009 0.5
359 1 0.784943 0.0375925 0.5
361 1 0.794941 0.0375925 0.5
561 1 0.789942 0.05009 0.5
363 1 0.804939 0.0375925 0.5
563 1 0.79994 0.05009 0.5
565 1 0.809938 0.05009 0.5
365 1 0.814937 0.0375925 0.5
567 1 0.819936 0.05009 0.5
367 1 0.824935 0.0375925 0.5
369 1 0.834933 0.0375925 0.5
569 1 0.829934 0.05009 0.5
371 1 0.844931 0.0375925 0.5
571 1 0.839932 0.05009 0.5
373 1 0.854929 0.0375925 0.5
573 1 0.84993 0.05009 0.5
575 1 0.859928 0.05009 0.5
375 1 0.864927 0.0375925 0.5
577 1 0.869926 0.05009 0.5
377 1 0.874925 0.0375925 0.5
379 1 0.884923 0.0375925 0.5
579 1 0.879924 0.05009 0.5
381 1 0.894921 0.0375925 0.5
581 1 0.889922 0.05009 0.5
383 1 0.904919 0.0375925 0.5
583 1 0.89992 0.05009 0.5
585 1 0.909918 0.05009 0.5
385 1 0.914917 0.0375925 0.5
587 1 0.919916 0.05009 0.5
387 1 0.924915 0.0375925 0.5
389 1 0.934913 0.0375925 0.5
589 1 0.929914 0.05009 0.5
391 1 0.944911 0.0375925 0.5
591 1 0.939912 0.05009 0.5
393 1 0.954909 0.0375925 0.5
593 1 0.94991 0.05009 0.5
595 1 0.959908 0.05009 0.5
395 1 0.964907 0.0375925 0.5
597 1 0.969906 0.05009 0.5
397 1 0.974905 0.0375925 0.5
399 1 0.984903 0.0375925 0.5
599 1 0.979904 0.05009 0.5
401 1 0.994901 0.0375925 0.5
601 1 0.989902 0.05009 0.5
603 1 0.9999 0.05009 0.5
404 3 0.00509898 0.0625875 0.5
406 3 0.015097 0.0625875 0.5
408 3 0.025095 0.0625875 0.5
410 3 0.035093 0.0625875 0.5
412 3 0.045091 0.0625875 0.5
414 3 0.055089 0.0625875 0.5
416 3 0.065087 0.0625875 0.5
418 3 0.075085 0.0625875 0.5
420 3 0.085083 0.0625875 0.5
422 3 0.095081 0.0625875 0.5
424 3 0.105079 0.0625875 0.5
426 3 0.115077 0.0625875 0.5
428 3 0.125075 0.0625875 0.5
430 3 0.135073 0.0625875 0.5
432 3 0.145071 0.0625875 0.5
434 3 0.155069 0.0625875 0.5
436 3 0.165067 0.0625875 0.5
438 3 0.175065 0.0625875 0.5
440 3 0.185063 0.0625875 0.5
442 3 0.195061 0.0625875 0.5
444 1 0.205059 0.0625875 0.5
446 1 0.215057 0.0625875 0.5
448 1 0.225055 0.0625875 0.5
450 1 0.235053 0.0625875 0.5
452 1 0.245051 0.0625875 0.5
454 1 0.255049 0.0625875 0.5
456 1 0.265047 0.0625875 0.5
458 1 0.275045 0.0625875 0.5
460 1 0.285043 0.0625875 0.5
462 1 0.295041 0.0625875 0.5
464 1 0.305039 0.0625875 0.5
466 1 0.315037 0.0625875 0.5
468 1 0.325035 0.0625875 0.5
470 1 0.335033 0.0625875 0.5
472 1 0.345031 0.0625875 0.5
474 1 0.355029 0.0625875 0.5
476 1 0.365027 0.0625875 0.5
478 1 0.375025 0.0625875 0.5
480 1 0.385023 0.0625875 0.5
482 1 0.395021 0.0625875 0.5
484 1 0.405019 0.0625875 0.5
486 1 0.415017 0.0625875 0.5
488 1 0.425015 0.0625875 0.5
490 1 0.435013 0.0625875 0.5
492 1 0.445011 0.0625875 0.5
494 1 0.455009 0.0625875 0.5
496 1 0.465007 0.0625875 0.5
498 1 0.475005 0.0625875 0.5
500 1 0.485003 0.0625875 0.5
502 1 0.495001 0.0625875 0.5
504 1 0.504999 0.0625875 0.5
506 1 0.514997 0.0625875 0.5
508 1 0.524995 0.0625875 0.5
510 1 0.534993 0.0625875 0.5
512 1 0.544991 0.0625875 0.5
514 1 0.554989 0.0625875 0.5
516 1 0.564987 0.0625875 0.5
518 1 0.574985 0.0625875 0.5
520 1 0.584983 0.0625875 0.5
522 1 0.594981 0.0625875 0.5
524 1 0.604979 0.0625875 0.5
526 1 0.614977 0.0625875 0.5
528 1 0.624975 0.0625875 0.5
530 1 0.634973 0.0625875 0.5
532 1 0.644971 0.0625875 0.5
534 1 0.654969 0.0625875 0.5
536 1 0.664967 0.0625875 0.5
538 1 0.674965 0.0625875 0.5
540 1 0.684963 0.0625875 0.5
542 1 0.694961 0.0625875 0.5
544 1 0.704959 0.0625875 0.5
546 1 0.714957 0.0625875 0.5
548 1 0.724955 0.0625875 0.5
550 1 0.734953 0.0625875 0.5
552 1 0.744951 0.0625875 0.5
554 1 0.754949 0.0625875 0.5
556 1 0.764947 0.0625875 0.5
558 1 0.774945 0.0625875 0.5
560 1 0.784943 0.0625875 0.5
562 1 0.794941 0.0625875 0.5
564 1 0.804939 0.0625875 0.5
566 1 0.814937 0.0625875 0.5
568 1 0.824935 0.0625875 0.5
570 1 0.834933 0.0625875 0.5
572 1 0.844931 0.0625875 0.5
574 1 0.854929 0.0625875 0.5
576 1 0.864927 0.0625875 0.5
578 1 0.874925 0.0625875 0.5
580 1 0.884923 0.0625875 0.5
582 1 0.894921 0.0625875 0.5
584 1 0.904919 0.0625875 0.5
586 1 0.914917 0.0625875 0.5
588 1 0.924915 0.0625875 0.5
590 1 0.934913 0.0625875 0.5
592 1 0.944911 0.0625875 0.5
594 1 0.954909 0.0625875 0.5
596 1 0.964907 0.0625875 0.5
598 1 0.974905 0.0625875 0.5
600 1 0.984903 0.0625875 0.5
602 1 0.994901 0.0625875 0.5
604 3 9.998e-05 0.075085 0.5
605 3 0.00509898 0.0875825 0.5
606 3 0.010098 0.075085 0.5
607 3 0.015097 0.0875825 0.5
608 3 0.020096 0.075085 0.5
609 3 0.025095 0.0875825 0.5
610 3 0.030094 0.075085 0.5
611 3 0.035093 0.0875825 0.5
612 3 0.040092 0.075085 0.5
613 3 0.045091 0.0875825 0.5
614 3 0.05009 0.075085 0.5
615 3 0.055089 0.0875825 0.5
616 3 0.060088 0.075085 0.5
617 3 0.065087 0.0875825 0.5
618 3 0.070086 0.075085 0.5
619 3 0.075085 0.0875825 0.5
620 3 0.080084 0.075085 0.5
621 3 0.085083 0.0875825 0.5
622 3 0.090082 0.075085 0.5
623 3 0.095081 0.0875825 0.5
624 3 0.10008 0.075085 0.5
625 3 0.105079 0.0875825 0.5
626 3 0.110078 0.075085 0.5
627 3 0.115077 0.0875825 0.5
628 3 0.120076 0.075085 0.5
629 3 0.125075 0.0875825 0.5
630 3 0.130074 0.075085 0.5
631 3 0.135073 0.0875825 0.5
632 3 0.140072 0.075085 0.5
633 3 0.145071 0.0875825 0.5
634 3 0.15007 0.075085 0.5
635 3 0.155069 0.0875825 0.5
636 3 0.160068 0.075085 0.5
637 3 0.165067 0.0875825 0.5
638 3 0.170066 0.075085 0.5
639 3 0.175065 0.0875825 0.5
640 3 0.180064 0.075085 0.5
641 3 0.185063 0.0875825 0.5
642 3 0.190062 0.075085 0.5
643 3 0.195061 0.0875825 0.5
644 3 0.20006 0.075085 0.5
645 1 0.205059 0.0875825 0.5
646 1 0.210058 0.075085 0.5
647 1 0.215057 0.0875825 0.5
648 1 0.220056 0.075085 0.5
649 1 0.225055 0.0875825 0.5
650 1 0.230054 0.075085 0.5
651 1 0.235053 0.0875825 0.5
652 1 0.240052 0.075085 0.5
653 1 0.245051 0.0875825 0.5
654 1 0.25005 0.075085 0.5
655 1 0.255049 0.0875825 0.5
656 1 0.260048 0.075085 0.5
657 1 0.265047 0.0875825 0.5
658 1 0.270046 0.075085 0.5
659 1 0.275045 0.0875825 0.5
660 1 0.280044 0.075085 0.5
661 1 0.285043 0.0875825 0.5
662 1 0.290042 0.075085 0.5
663 1 0.295041 0.0875825 0.5
664 1 0.30004 0.075085 0.5
665 1 0.305039 0.0875825 0.5
666 1 0.310038 0.075085 0.5
667 1 0.315037 0.0875825 0.5
668 1 0.320036 0.075085 0.5
669 1 0.325035 0.0875825 0.5
670 1 0.330034 0.075085 0.5
671 1 0.335033 0.0875825 0.5
672 1 0.340032 0.075085 0.5
673 1 0.345031 0.0875825 0.5
674 1 0.35003 0.075085 0.5
675 1 0.355029 0.0875825 0.5
676 1 0.360028 0.075085 0.5
677 1 0.365027 0.0875825 0.5
678 1 0.370026 0.075085 0.5
679 1 0.375025 0.0875825 0.5
680 1 0.380024 0.075085 0.5
681 1 0.385023 0.0875825 0.5
682 1 0.390022 0.075085 0.5
683 1 0.395021 0.0875825 0.5
684 1 0.40002 0.075085 0.5
685 1 0.405019 0.0875825 0.5
686 1 0.410018 0.075085 0.5
687 1 0.415017 0.0875825 0.5
688 1 0.420016 0.075085 0.5
689 1 0.425015 0.0875825 0.5
690 1 0.430014 0.075085 0.5
691 1 0.435013 0.0875825 0.5
692 1 0.440012 0.075085 0.5
693 1 0.445011 0.0875825 0.5
694 1 0.45001 0.075085 0.5
695 1 0.455009 0.0875825 0.5
696 1 0.460008 0.075085 0.5
697 1 0.465007 0.0875825 0.5
698 1 0.470006 0.075085 0.5
699 1 0.475005 0.0875825 0.5
700 1 0.480004 0.075085 0.5
701 1 0.485003 0.0875825 0.5
702 1 0.490002 0.075085 0.5
703 1 0.495001 0.0875825 0.5
704 1 0.5 0.075085 0.5
705 1 0.504999 0.0875825 0.5
706 1 0.509998 0.075085 0.5
707 1 0.514997 0.0875825 0.5
708 1 0.519996 0.075085 0.5
709 1 0.524995 0.0875825 0.5
710 1 0.529994 0.075085 0.5
711 1 0.534993 0.0875825 0.5
712 1 0.539992 0.075085 0.5
713 1 0.544991 0.0875825 0.5
714 1 0.54999 0.075085 0.5
715 1 0.554989 0.0875825 0.5
716 1 0.559988 0.075085 0.5
717 1 0.564987 0.0875825 0.5
718 1 0.569986 0.075085 0.5
719 1 0.574985 0.0875825 0.5
720 1 0.579984 0.075085 0.5
721 1 0.584983 0.0875825 0.5
722 1 0.589982 0.075085 0.5
723 1 0.594981 0.0875825 0.5
724 1 0.59998 0.075085 0.5
725 1 0.604979 0.0875825 0.5
726 1 0.609978 0.075085 0.5
727 1 0.614977 0.0875825 0.5
728 1 0.619976 0.075085 0.5
729 1 0.624975 0.0875825 0.5
730 1 0.629974 0.075085 0.5
731 1 0.634973 0.0875825 0.5
732 1 0.639972 0.075085 0.5
733 1 0.644971 0.0875825 0.5
734 1 0.64997 0.075085 0.5
735 1 0.654969 0.0875825 0.5
736 1 0.659968 0.075085 0.5
737 1 0.664967 0.0875825 0.5
738 1 0.669966 0.075085 0.5
739 1 0.674965 0.0875825 0.5
740 1 0.679964 0.075085 0.5
741 1 0.684963 0.0875825 0.5
742 1 0.689962 0.075085 0.5
743 1 0.694961 0.0875825 0.5
744 1 0.69996 0.075085 0.5
745 1 0.704959 0.0875825 0.5
746 1 0.709958 0.075085 0.5
747 1 0.714957 0.0875825 0.5
748 1 0.719956 0.075085 0.5
749 1 0.724955 0.0875825 0.5
750 1 0.729954 0.075085 0.5
751 1 0.734953 0.0875825 0.5
752 1 0.739952 0.075085 0.5
753 1 0.744951 0.0875825 0.5
754 1 0.74995 0.075085 0.5
755 1 0.754949 0.0875825 0.5
756 1 0.759948 0.075085 0.5
757 1 0.764947 0.0875825 0.5
758 1 0.769946 0.075085 0.5
759 1 0.774945 0.0875825 0.5
760 1 0.779944 0.075085 0.5
761 1 0.784943 0.0875825 0.5
762 1 0.789942 0.075085 0.5
763 1 0.794941 0.0875825 0.5
764 1 0.79994 0.075085 0.5
765 1 0.804939 0.0875825 0.5
766 1 0.809938 0.075085 0.5
767 1 0.814937 0.0875825 0.5
768 1 0.819936 0.075085 0.5
769 1 0.824935 0.0875825 0.5
770 1 0.829934 0.075085 0.5
771 1 0.834933 0.0875825 0.5
772 1 0.839932 0.075085 0.5
773 1 0.844931 0.0875825 0.5
774 1 0.84993 0.075085 0.5
775 1 0.854929 0.0875825 0.5
776 1 0.859928 0.075085 0.5
777 1 0.864927 0.0875825 0.5
778 1 0.869926 0.075085 0.5
779 1 0.874925 0.0875825 0.5
780 1 0.879924 0.075085 0.5
781 1 0.884923 0.0875825 0.5
782 1 0.889922 0.075085 0.5
783 1 0.894921 0.0875825 0.5
784 1 0.89992 0.075085 0.5
785 1 0.904919 0.0875825 0.5
786 1 0.909918 0.075085 0.5
787 1 0.914917 0.0875825 0.5
788 1 0.919916 0.075085 0.5
789 1 0.924915 0.0875825 0.5
790 1 0.929914 0.075085 0.5
791 1 0.934913 0.0875825 0.5
792 1 0.939912 0.075085 0.5
793 1 0.944911 0.0875825 0.5
794 1 0.94991 0.075085 0.5
795 1 0.954909 0.0875825 0.5
796 1 0.959908 0.075085 0.5
797 1 0.964907 0.0875825 0.5
798 1 0.969906 0.075085 0.5
799 1 0.974905 0.0875825 0.5
800 1 0.979904 0.075085 0.5
801 1 0.984903 0.0875825 0.5
802 1 0.989902 0.075085 0.5
803 1 0.994901 0.0875825 0.5
804 1 0.9999 0.075085 0.5
805 3 9.998e-05 0.10008 0.5
807 3 0.010098 0.10008 0.5
809 3 0.020096 0.10008 0.5
811 3 0.030094 0.10008 0.5
813 3 0.040092 0.10008 0.5
815 3 0.05009 0.10008 0.5
817 3 0.060088 0.10008 0.5
819 3 0.070086 0.10008 0.5
821 3 0.080084 0.10008 0.5
823 3 0.090082 0.10008 0.5
825 3 0.10008 0.10008 0.5
827 3 0.110078 0.10008 0.5
829 3 0.120076 0.10008 0.5
831 3 0.130074 0.10008 0.5
833 3 0.140072 0.10008 0.5
835 3 0.15007 0.10008 0.5
837 3 0.160068 0.10008 0.5
839 3 0.170066 0.10008 0.5
841 3 0.180064 0.10008 0.5
843 3 0.190062 0.10008 0.5
845 3 0.20006 0.10008 0.5
847 1 0.210058 0.10008 0.5
849 1 0.220056 0.10008 0.5
851 1 0.230054 0.10008 0.5
853 1 0.240052 0.10008 0.5
855 1 0.25005 0.10008 0.5
857 1 0.260048 0.10008 0.5
859 1 0.270046 0.10008 0.5
861 1 0.280044 0.10008 0.5
863 1 0.290042 0.10008 0.5
865 1 0.30004 0.10008 0.5
867 1 0.310038 0.10008 0.5
869 1 0.320036 0.10008 0.5
871 1 0.330034 0.10008 0.5
873 1 0.340032 0.10008 0.5
875 1 0.35003 0.10008 0.5
877 1 0.360028 0.10008 0.5
879 1 0.370026 0.10008 0.5
881 1 0.380024 0.10008 0.5
883 1 0.390022 0.10008 0.5
885 1 0.40002 0.10008 0.5
887 1 0.410018 0.10008 0.5
889 1 0.420016 0.10008 0.5
891 1 0.430014 0.10008 0.5
893 1 0.440012 0.10008 0.5
895 1 0.45001 0.10008 0.5
897 1 0.460008 0.10008 0.5
899 1 0.470006 0.10008 0.5
901 1 0.480004 0.10008 0.5
903 1 0.490002 0.10008 0.5
905 1 0.5 0.10008 0.5
907 1 0.509998 0.10008 0.5
909 1 0.519996 0.10008 0.5
911 1 0.529994 0.10008 0.5
913 1 0.539992 0.10008 0.5
915 1 0.54999 0.10008 0.5
917 1 0.559988 0.10008 0.5
919 1 0.569986 0.10008 0.5
921 1 0.579984 0.10008 0.5
923 1 0.589982 0.10008 0.5
925 1 0.59998 0.10008 0.5
927 1 0.609978 0.10008 0.5
929 1 0.619976 0.10008 0.5
931 1 0.629974 0.10008 0.5
933 1 0.639972 0.10008 0.5
935 1 0.64997 0.10008 0.5
937 1 0.659968 0.10008 0.5
939 1 0.669966 0.10008 0.5
941 1 0.679964 0.10008 0.5
943 1 0.689962 0.10008 0.5
945 1 0.69996 0.10008 0.5
947 1 0.709958 0.10008 0.5
949 1 0.719956 0.10008 0.5
951 1 0.729954 0.10008 0.5
953 1 0.739952 0.10008 0.5
955 1 0.74995 0.10008 0.5
957 1 0.759948 0.10008 0.5
959 1 0.769946 0.10008 0.5
961 1 0.779944 0.10008 0.5
963 1 0.789942 0.10008 0.5
965 1 0.79994 0.10008 0.5
967 1 0.809938 0.10008 0.5
969 1 0.819936 0.10008 0.5
971 1 0.829934 0.10008 0.5
973 1 0.839932 0.10008 0.5
975 1 0.84993 0.10008 0.5
977 1 0.859928 0.10008 0.5
979 1 0.869926 0.10008 0.5
981 1 0.879924 0.10008 0.5
983 1 0.889922 0.10008 0.5
985 1 0.89992 0.10008 0.5
987 1 0.909918 0.10008 0.5
989 1 0.919916 0.10008 0.5
991 1 0.929914 0.10008 0.5
993 1 0.939912 0.10008 0.5
995 1 0.94991 0.10008 0.5
997 1 0.959908 0.10008 0.5
999 1 0.969906 0.10008 0.5
1001 1 0.979904 0.10008 0.5
1003 1 0.989902 0.10008 0.5
1005 1 0.9999 0.10008 0.5
806 3 0.00509898 0.112577 0.5
1006 3 9.998e-05 0.125075 0.5
1008 3 0.010098 0.125075 0.5
808 3 0.015097 0.112577 0.5
810 3 0.025095 0.112577 0.5
1010 3 0.020096 0.125075 0.5
812 3 0.035093 0.112577 0.5
1012 3 0.030094 0.125075 0.5
814 3 0.045091 0.112577 0.5
1014 3 0.040092 0.125075 0.5
1016 3 0.05009 0.125075 0.5
816 3 0.055089 0.112577 0.5
1018 3 0.060088 0.125075 0.5
818 3 0.065087 0.112577 0.5
820 3 0.075085 0.112577 0.5
1020 3 0.070086 0.125075 0.5
822 3 0.085083 0.112577 0.5
1022 3 0.080084 0.125075 0.5
824 3 0.095081 0.112577 0.5
1024 3 0.090082 0.125075 0.5
1026 3 0.10008 0.125075 0.5
826 3 0.105079 0.112577 0.5
1028 3 0.110078 0.125075 0.5
828 3 0.115077 0.112577 0.5
830 3 0.125075 0.112577 0.5
1030 3 0.120076 0.125075 0.5
832 3 0.135073 0.112577 0.5
1032 3 0.130074 0.125075 0.5
834 3 0.145071 0.112577 0.5
1034 3 0.140072 0.125075 0.5
1036 3 0.15007 0.125075 0.5
836 3 0.155069 0.112577 0.5
1038 3 0.160068 0.125075 0.5
838 3 0.165067 0.112577 0.5
840 3 0.175065 0.112577 0.5
1040 3 0.170066 0.125075 0.5
842 3 0.185063 0.112577 0.5
1042 3 0.180064 0.125075 0.5
844 3 0.195061 0.112577 0.5
1044 3 0.190062 0.125075 0.5
1046 3 0.20006 0.125075 0.5
846 1 0.205059 0.112577 0.5
848 1 0.215057 0.112577 0.5
1048 1 0.210058 0.125075 0.5
850 1 0.225055 0.112577 0.5
1050 1 0.220056 0.125075 0.5
852 1 0.235053 0.112577 0.5
1052 1 0.230054 0.125075 0.5
1054 1 0.240052 0.125075 0.5
854 1 0.245051 0.112577 0.5
1056 1 0.25005 0.125075 0.5
856 1 0.255049 0.112577 0.5
858 1 0.265047 0.112577 0.5
1058 1 0.260048 0.125075 0.5
860 1 0.275045 0.112577 0.5
1060 1 0.270046 0.125075 0.5
862 1 0.285043 0.112577 0.5
1062 1 0.280044 0.125075 0.5
1064 1 0.290042 0.125075 0.5
864 1 0.295041 0.112577 0.5
1066 1 0.30004 0.125075 0.5
866 1 0.305039 0.112577 0.5
868 1 0.315037 0.112577 0.5
1068 1 0.310038 0.125075 0.5
870 1 0.325035 0.112577 0.5
1070 1 0.320036 0.125075 0.5
872 1 0.335033 0.112577 0.5
1072 1 0.330034 0.125075 0.5
1074 1 0.340032 0.125075 0.5
874 1 0.345031 0.112577 0.5
1076 1 0.35003 0.125075 0.5
876 1 0.355029 0.112577 0.5
878 1 0.365027 0.112577 0.5
1078 1 0.360028 0.125075 0.5
880 1 0.375025 0.112577 0.5
1080 1 0.370026 0.125075 0.5
882 1 0.385023 0.112577 0.5
1082 1 0.380024 0.125075 0.5
1084 1 0.390022 0.125075 0.5
884 1 0.395021 0.112577 0.5
886 1 0.405019 0.112577 0.5
1086 1 0.40002 0.125075 0.5
888 1 0.415017 0.112577 0.5
1088 1 0.410018 0.125075 0.5
890 1 0.425015 0.112577 0.5
1090 1 0.420016 0.125075 0.5
1092 1 0.430014 0.125075 0.5
892 1 0.435013 0.112577 0.5
1094 1 0.440012 0.125075 0.5
894 1 0.445011 0.112577 0.5
896 1 0.455009 0.112577 0.5
1096 1 0.45001 0.125075 0.5
898 1 0.465007 0.112577 0.5
1098 1 0.460008 0.125075 0.5
900 1 0.475005 0.112577 0.5
1100 1 0.470006 0.125075 0.5
1102 1 0.480004 0.125075 0.5
902 1 0.485003 0.112577 0.5
1104 1 0.490002 0.125075 0.5
904 1 0.495001 0.112577 0.5
906 1 0.504999 0.112577 0.5
1106 1 0.5 0.125075 0.5
908 1 0.514997 0.112577 0.5
1108 1 0.509998 0.125075 0.5
910 1 0.524995 0.112577 0.5
1110 1 0.519996 0.125075 0.5
1112 1 0.529994 0.125075 0.5
912 1 0.534993 0.112577 0.5
1114 1 0.539992 0.125075 0.5
914 1 0.544991 0.112577 0.5
916 1 0.554989 0.112577 0.5
1116 1 0.54999 0.125075 0.5
918 1 0.564987 0.112577 0.5
1118 1 0.559988 0.125075 0.5
920 1 0.574985 0.112577 0.5
1120 1 0.569986 0.125075 0.5
1122 1 0.579984 0.125075 0.5
922 1 0.584983 0.112577 0.5
1124 1 0.589982 0.125075 0.5
924 1 0.594981 0.112577 0.5
926 1 0.604979 0.112577 0.5
1126 1 0.59998 0.125075 0.5
928 1 0.614977 0.112577 0.5
1128 1 0.609978 0.125075 0.5
1130 1 0.619976 0.125075 0.5
930 1 0.624975 0.112577 0.5
1132 1 0.629974 0.125075 0.5
932 1 0.634973 0.112577 0.5
934 1 0.644971 0.112577 0.5
1134 1 0.639972 0.125075 0.5
936 1 0.654969 0.112577 0.5
1136 1 0.64997 0.125075 0.5
938 1 0.664967 0.112577 0.5
1138 1 0.659968 0.125075 0.5
1140 1 0.669966 0.125075 0.5
940 1 0.674965 0.112577 0.5
1142 1 0.679964 0.125075 0.5
942 1 0.684963 0.112577 0.5
944 1 0.694961 0.112577 0.5
1144 1 0.689962 0.125075 0.5
946 1 0.704959 0.112577 0.5
1146 1 0.69996 0.125075 0.5
948 1 0.714957 0.112577 0.5
1148 1 0.709958 0.125075 0.5
1150 1 0.719956 0.125075 0.5
950 1 0.724955 0.112577 0.5
1152 1 0.729954 0.125075 0.5
952 1 0.734953 0.112577 0.5
954 1 0.744951 0.112577 0.5
1154 1 0.739952 0.125075 0.5
956 1 0.754949 0.112577 0.5
1156 1 0.74995 0.125075 0.5