# LAMMPS data file written by OVITO Basic 3.6.0
27350 atoms
2 atom types
-7.834 7.834 xlo xhi
-7.834 7.834 ylo yhi
-125.400213675 125.400213675 zlo zhi

Masses

1 12.0107  # C
2 1.0  # U

Atoms  # atomic

1 1 58.4995125782 -2.1557743779 -159.3063121891
2 1 58.3021637774 -0.9457743779 -157.1743129323
3 1 58.4971363694 -2.1557743779 -157.8853120798
4 1 58.2926592552 -0.9457743779 -155.753312823
5 1 58.4781313987 -2.1557743779 -155.0433118612
6 1 58.2594116025 -0.9457743779 -152.9113126044
7 1 58.4615085908 -2.1557743779 -153.6223117519
8 1 58.2356791262 -0.9457743779 -151.4903124951
9 1 58.4140488087 -2.1557743779 -150.7803115333
10 1 58.1740343203 -0.9457743779 -148.6483122765
11 1 58.3832267191 -2.1557743779 -149.359311424
12 1 58.136141419 -0.9457743779 -147.2273121672
13 1 58.3074473403 -2.1557743779 -146.5173112054
14 1 58.0462749414 -0.9457743779 -144.3853119486
15 1 58.2625140232 -2.1557743779 -145.0963110961
16 1 57.994329881 -0.9457743779 -142.9643118392
17 1 58.1586312662 -2.1557743779 -142.2543133854
18 1 57.8764980602 -0.9457743779 -140.1223116206
19 1 58.0997145724 -2.1557743779 -140.8333132761
20 1 57.8106487465 -0.9457743779 -138.7013115113
21 1 57.9680244057 -2.1557743779 -137.9913130575
22 1 57.6651875046 -0.9457743779 -135.8593112927
23 1 57.895292453 -2.1557743779 -136.5703129482
24 1 57.5856216402 -0.9457743779 -134.4383111834
25 1 57.7361704385 -2.1557743779 -133.7283127296
26 1 57.412945709 -0.9457743779 -131.5963109648
27 1 57.6498305144 -2.1557743779 -132.3073126203
28 1 57.3198903234 -0.9457743779 -130.1753133635
29 1 57.463730084 -2.1557743779 -129.4653124017
30 1 57.1204918348 -0.9457743779 -127.3333131449
31 1 57.3640284895 -2.1557743779 -128.0443122924
32 1 57.0142120304 -0.9457743779 -125.9123130356
33 1 57.1514803185 -2.1557743779 -125.2023120738
34 1 56.7886595761 -0.9457743779 -123.070312817
35 1 57.0387011144 -2.1557743779 -123.7813119645
36 1 56.6694583722 -0.9457743779 -121.6493127077
37 1 56.800311241 -2.1557743779 -120.9393117459
38 1 56.4183948102 -0.9457743779 -118.8073124891
39 1 56.6747759347 -2.1557743779 -119.5183116366
40 1 56.2866120456 -0.9457743779 -117.3863123798
41 1 56.4112237233 -2.1557743779 -116.676311418
42 1 56.010753247 -0.9457743779 -114.5443121611
43 1 56.2732903286 -2.1557743779 -115.2553113086
44 1 55.8667646403 -0.9457743779 -113.1233120518
45 1 55.9853273732 -2.1557743779 -112.41331109
46 1 55.5668969818 -0.9457743779 -110.2813118332
47 1 55.8353890003 -2.1557743779 -110.9923109807
48 1 55.4111130348 -0.9457743779 -108.8603117239
49 1 55.5238359907 -2.1557743779 -108.1503132701
50 1 55.0880913626 -0.9457743779 -106.0183115053
51 1 55.3623200625 -2.1557743779 -106.7293131608
52 1 54.9209561062 -0.9457743779 -104.597311396
53 1 55.0280653744 -2.1557743779 -103.8873129422
54 1 54.5757013853 -0.9457743779 -101.7553111774
55 1 54.8554323735 -2.1557743779 -102.4663128329
56 1 54.3976912834 -0.9457743779 -100.3343110681
57 1 54.4994289346 -2.1557743779 -99.6243126143
58 1 54.031187621 -0.9457743779 -97.4923133575
59 1 54.3161709928 -2.1557743779 -98.203312505
60 1 53.8428103169 -0.9457743779 -96.0713132482
61 1 53.9394336194 -2.1557743779 -95.3613122864
62 1 53.4561026117 -0.9457743779 -93.2293130296
63 1 53.7460732646 -2.1557743779 -93.9403121771
64 1 53.2578950478 -0.9457743779 -91.8083129203
65 1 53.3496758416 -2.1557743779 -91.0983119585
66 1 52.8520858571 -0.9457743779 -88.9663127017
67 1 53.146764274 -2.1557743779 -89.6773118492
68 1 52.6446128646 -0.9457743779 -87.5453125924
69 1 52.731836934 -2.1557743779 -86.8353116305
70 1 52.2208591136 -0.9457743779 -84.7033123737
71 1 52.5199527728 -2.1557743779 -85.4143115212
72 1 52.0047123163 -0.9457743779 -83.2823122644
73 1 52.08767845 -2.1557743779 -82.5723113026
74 1 51.564221851 -0.9457743779 -80.4403120458
75 1 51.8674253833 -2.1557743779 -81.1513111933
76 1 51.340017628 -0.9457743779 -79.0193119365
77 1 51.4190365225 -2.1557743779 -78.3093109747
78 1 50.8840462386 -0.9457743779 -76.1773117179
79 1 51.1910426804 -2.1557743779 -76.8883133734
80 1 50.6524236877 -0.9457743779 -74.7563116086
81 1 50.7278173203 -2.1557743779 -74.0463131548
82 1 50.1822713482 -0.9457743779 -71.91431139
83 1 50.4927326115 -2.1557743779 -72.6253130455
84 1 49.9438905622 -0.9457743779 -70.4933112807
85 1 50.0159915646 -2.1557743779 -69.7833128269
86 1 49.4608975132 -0.9457743779 -67.6513110621
87 1 49.774486266 -2.1557743779 -68.3623127176
88 1 49.2164383266 -0.9457743779 -66.2303109528
89 1 49.2855885746 -2.1557743779 -65.520312499
90 1 48.7219816288 -0.9457743779 -63.3883132422
91 1 49.0383509815 -2.1557743779 -64.0993123897
92 1 48.4721407975 -0.9457743779 -61.9673131329
93 1 48.5386903142 -2.1557743779 -61.2573121711
94 1 47.9676299441 -0.9457743779 -59.1253129142
95 1 48.2864254866 -2.1557743779 -59.8363120618
96 1 47.7131198922 -0.9457743779 -57.7043128049
97 1 47.7774263779 -2.1557743779 -56.9943118431
98 1 47.1999932055 -0.9457743779 -54.8623125863
99 1 47.5208533204 -2.1557743779 -55.5733117338
100 1 46.9415392046 -0.9457743779 -53.441312477
101 1 47.0039666272 -2.1557743779 -52.7313115152
102 1 46.421259606 -0.9457743779 -50.5993122584
103 1 46.7438168786 -2.1557743779 -51.3103114059
104 1 46.1595986788 -0.9457743779 -49.1783121491
105 1 46.2205164896 -2.1557743779 -48.4683111873
106 1 45.6336491443 -0.9457743779 -46.3363119305
107 1 45.9575316164 -2.1557743779 -47.047311078
108 1 45.3695272444 -0.9457743779 -44.9153118212
109 1 45.4293092818 -2.1557743779 -44.2053133674
110 1 44.8394073584 -0.9457743779 -42.0733116026
111 1 45.1642389979 -2.1557743779 -42.7843132581
112 1 44.5735773331 -0.9457743779 -40.6523114933
113 1 44.6326004126 -2.1557743779 -39.9423130395
114 1 44.0407984308 -0.9457743779 -37.8103112747
115 1 44.3662005422 -2.1557743779 -38.5213129302
116 1 43.774018298 -0.9457743779 -36.3893111654
117 1 43.8326614285 -2.1557743779 -35.6793127116
118 1 43.2400990786 -0.9457743779 -33.5473109468
119 1 43.5656912429 -2.1557743779 -34.2583126023
120 1 42.9731292064 -0.9457743779 -32.1263133455
121 1 43.0317724935 -2.1557743779 -31.4163123837
122 1 42.4395918161 -0.9457743779 -29.2843131268
123 1 42.7649933008 -2.1557743779 -29.9953122743
124 1 42.1731933558 -0.9457743779 -27.8633130175
125 1 42.2322172187 -2.1557743779 -27.1533120557
126 1 41.6415588442 -0.9457743779 -25.0213127989
127 1 41.9663892303 -2.1557743779 -25.7323119464
128 1 41.3764912238 -0.9457743779 -23.6003126896
129 1 41.4362746714 -2.1557743779 -22.8903117278
130 1 40.8482753131 -0.9457743779 -20.758312471
131 1 41.1721560618 -2.1557743779 -21.4693116185
132 1 40.5852942003 -0.9457743779 -19.3373123617
133 1 40.6462142046 -2.1557743779 -18.6273113999
134 1 40.0620025853 -0.9457743779 -16.4953121431
135 1 40.3845576645 -2.1557743779 -17.2063112906
136 1 39.8018576939 -0.9457743779 -15.0743120338
137 1 39.86428778 -2.1557743779 -14.364311072
138 1 39.2849821249 -0.9457743779 -12.2323118152
139 1 39.6058394196 -2.1557743779 -12.9433109627
140 1 39.0284151779 -0.9457743779 -10.8113117059
141 1 39.0927247973 -2.1557743779 -10.1013132521
142 1 38.519429387 -0.9457743779 -7.9693114873
143 1 38.8382213259 -2.1557743779 -8.6803131428
144 1 38.2671717668 -0.9457743779 -6.548311378
145 1 38.333724887 -2.1557743779 -5.8383129242
146 1 37.767526454 -0.9457743779 -3.7063111593
147 1 38.0838918898 -2.1557743779 -4.4173128149
148 1 37.5202973217 -0.9457743779 -2.28531105
149 1 37.5894518 -2.1557743779 -1.5753125962
150 1 37.0314171784 -0.9457743779 0.5566866606
151 1 37.3450013875 -2.1557743779 -0.1543124869
152 1 36.7899212807 -0.9457743779 1.9776867699
153 1 36.8620271402 -2.1557743779 2.6876877317
154 1 36.3131999754 -0.9457743779 4.8196869885
155 1 36.623656225 -2.1557743779 4.108687841
156 1 36.0781257642 -0.9457743779 6.2406870978
157 1 36.1535247239 -2.1557743779 6.9506880596
158 1 35.6149223393 -0.9457743779 9.0826873164
159 1 35.9219131406 -2.1557743779 8.3716881689
160 1 35.3869399348 -0.9457743779 10.5036874257
161 1 35.4659646264 -2.1557743779 11.2136883875
162 1 34.9385748894 -0.9457743779 13.3456876443
163 1 35.2417723112 -2.1557743779 12.6346884968
164 1 34.7183342004 -0.9457743779 14.7666877536
165 1 34.8013066013 -2.1557743779 15.4766887154
166 1 34.2860857298 -0.9457743779 17.6086879722
167 1 34.5851728085 -2.1557743779 16.8976888247
168 1 34.0742148864 -0.9457743779 19.0296880815
169 1 34.1614458497 -2.1557743779 19.7396890433
170 1 33.6593152788 -0.9457743779 21.8716883001
171 1 33.9539866451 -2.1557743779 21.1606866446
172 1 33.4564179691 -0.9457743779 23.2926884094
173 1 33.5482061268 -2.1557743779 24.0026868632
174 1 33.0600500018 -0.9457743779 26.1346886281
175 1 33.3500131341 -2.1557743779 25.4236869726
176 1 32.866704845 -0.9457743779 27.5556887374
177 1 32.9633358249 -2.1557743779 28.2656871912
178 1 32.4899984943 -0.9457743779 30.397688956
179 1 32.7749740321 -2.1557743779 29.6866873005
180 1 32.3067566906 -0.9457743779 31.8186865573
181 1 32.408502489 -2.1557743779 32.5286875191
182 1 31.9507858411 -0.9457743779 34.6606867759
183 1 32.2305086819 -2.1557743779 33.9496876284
184 1 31.7781697616 -0.9457743779 36.0816868852
185 1 31.8852874906 -2.1557743779 36.791687847
186 1 31.4439493864 -0.9457743779 38.9236871038
187 1 31.718169469 -2.1557743779 38.2126879563
188 1 31.2824510064 -0.9457743779 40.3446872131
189 1 31.3951827364 -2.1557743779 41.0546881749
190 1 30.9709337198 -0.9457743779 43.1866874317
191 1 31.2394166508 -2.1557743779 42.4756882842
192 1 30.8210135218 -0.9457743779 44.607687541
193 1 30.9395853421 -2.1557743779 45.3176885028
194 1 30.5330875428 -0.9457743779 47.4496877596
195 1 30.7956152237 -2.1557743779 46.7386886121
196 1 30.3951729498 -0.9457743779 48.8706878689
197 1 30.5197940282 -2.1557743779 49.5806888307
198 1 30.1316589683 -0.9457743779 51.7126880875
199 1 30.3880303786 -2.1557743779 51.00168894
200 1 30.0061430903 -0.9457743779 53.1336881969
201 1 30.1370056733 -2.1557743779 53.8436866507
202 1 29.7677923869 -0.9457743779 55.9756884155
203 1 30.017824211 -2.1557743779 55.26468676
204 1 29.6550332378 -0.9457743779 57.3966885248
205 1 29.7923115534 -2.1557743779 58.1066869786
206 1 29.4425253336 -0.9457743779 60.2386887434
207 1 29.6860519608 -2.1557743779 59.5276870879
208 1 29.3428441075 -0.9457743779 61.6596888527
209 1 29.486694209 -2.1557743779 62.3696873065
210 1 29.156784884 -0.9457743779 64.5016865633
211 1 29.3936593485 -2.1557743779 63.7906874158
212 1 29.070465955 -0.9457743779 65.9226866726
213 1 29.2210249374 -2.1557743779 66.6326876344
214 1 28.9113857741 -0.9457743779 68.7646868912
215 1 29.1414802249 -2.1557743779 68.0536877437
216 1 28.8386749731 -0.9457743779 70.1856870005
217 1 28.9960612866 -2.1557743779 70.8956879623
218 1 28.7070274234 -0.9457743779 73.0276872191
219 1 28.9302332813 -2.1557743779 72.3166880716
220 1 28.6481321948 -0.9457743779 74.4486873284
221 1 28.8124443909 -2.1557743779 75.1586882902
222 1 28.5442925248 -0.9457743779 77.290687547
223 1 28.7605207956 -2.1557743779 76.5796883995
224 1 28.4993808295 -0.9457743779 78.7116876563
225 1 28.6706977184 -2.1557743779 79.4216886181
226 1 28.4236450078 -0.9457743779 81.553687875
227 1 28.6328265956 -2.1557743779 80.8426887275
228 1 28.3928448534 -0.9457743779 82.9746879843
229 1 28.5712253467 -2.1557743779 83.6846889461
230 1 28.345428785 -0.9457743779 85.8166882029
231 1 28.5475148056 -2.1557743779 85.1056890554
232 1 28.3288279122 -0.9457743779 87.2376883122
233 1 28.5143110234 -2.1557743779 87.947686766
234 1 28.309866812 -0.9457743779 90.0796885308
235 1 28.5048284364 -2.1557743779 89.3686868753
236 1 57.7515125441 0.1462256837 -159.3063121891
237 1 56.879163898 1.013225588 -157.1743129323
238 1 57.7491363352 0.1462256837 -157.8853120798
239 1 56.8696592191 1.013225588 -155.753312823
240 1 57.7301313646 0.1462256837 -155.0433118612
241 1 56.8364117231 1.013225588 -152.9113126044
242 1 57.7135085566 0.1462256837 -153.6223117519
243 1 56.8126790902 1.013225588 -151.4903124951
244 1 57.6660487745 0.1462256837 -150.7803115333
245 1 56.7510342842 1.013225588 -148.6483122765
246 1 57.6352268416 0.1462256837 -149.359311424
247 1 56.7131413829 1.013225588 -147.2273121672
248 1 57.5594474628 0.1462256837 -146.5173112054
249 1 56.623275062 1.013225588 -144.3853119486
250 1 57.514513989 0.1462256837 -145.0963110961
251 1 56.5713298449 1.013225588 -142.9643118392
252 1 57.410631232 0.1462256837 -142.2543133854
253 1 56.4534980242 1.013225588 -140.1223116206
254 1 57.3517145383 0.1462256837 -140.8333132761
255 1 56.3876487104 1.013225588 -138.7013115113
256 1 57.2200243716 0.1462256837 -137.9913130575
257 1 56.2421874685 1.013225588 -135.8593112927
258 1 57.1472925755 0.1462256837 -136.5703129482
259 1 56.1626217608 1.013225588 -134.4383111834
260 1 56.9881704043 0.1462256837 -133.7283127296
261 1 55.9899456729 1.013225588 -131.5963109648
262 1 56.9018306369 0.1462256837 -132.3073126203
263 1 55.8968902873 1.013225588 -130.1753133635
264 1 56.7157302066 0.1462256837 -129.4653124017
265 1 55.6974917987 1.013225588 -127.3333131449
266 1 56.6160284554 0.1462256837 -128.0443122924
267 1 55.5912119944 1.013225588 -125.9123130356
268 1 56.403480441 0.1462256837 -125.2023120738
269 1 55.36565954 1.013225588 -123.070312817
270 1 56.290701237 0.1462256837 -123.7813119645
271 1 55.2464583361 1.013225588 -121.6493127077
272 1 56.0523112068 0.1462256837 -120.9393117459
273 1 54.9953947742 1.013225588 -118.8073124891
274 1 55.9267759006 0.1462256837 -119.5183116366
275 1 54.8636120096 1.013225588 -117.3863123798
276 1 55.6632238458 0.1462256837 -116.676311418
277 1 54.5877532109 1.013225588 -114.5443121611
278 1 55.5252902945 0.1462256837 -115.2553113086
279 1 54.4437646042 1.013225588 -113.1233120518
280 1 55.2373273391 0.1462256837 -112.41331109
281 1 54.1438969458 1.013225588 -110.2813118332
282 1 55.0873889661 0.1462256837 -110.9923109807
283 1 53.9881129987 1.013225588 -108.8603117239
284 1 54.7758359566 0.1462256837 -108.1503132701
285 1 53.6650913265 1.013225588 -106.0183115053
286 1 54.6143200284 0.1462256837 -106.7293131608
287 1 53.4979560701 1.013225588 -104.597311396
288 1 54.2800653402 0.1462256837 -103.8873129422
289 1 53.1527013492 1.013225588 -101.7553111774
290 1 54.107432496 0.1462256837 -102.4663128329
291 1 52.9746912474 1.013225588 -100.3343110681
292 1 53.7514289004 0.1462256837 -99.6243126143
293 1 52.6081875849 1.013225588 -97.4923133575
294 1 53.5681711153 0.1462256837 -98.203312505
295 1 52.4198102808 1.013225588 -96.0713132482
296 1 53.1914335853 0.1462256837 -95.3613122864
297 1 52.0331027323 1.013225588 -93.2293130296
298 1 52.9980732305 0.1462256837 -93.9403121771
299 1 51.8348950117 1.013225588 -91.8083129203
300 1 52.6016758074 0.1462256837 -91.0983119585
301 1 51.429085821 1.013225588 -88.9663127017
302 1 52.3987642398 0.1462256837 -89.6773118492
303 1 51.2216128286 1.013225588 -87.5453125924
304 1 51.9838370565 0.1462256837 -86.8353116305
305 1 50.7978590775 1.013225588 -84.7033123737
306 1 51.7719527387 0.1462256837 -85.4143115212
307 1 50.5817124369 1.013225588 -83.2823122644
308 1 51.3396784158 0.1462256837 -82.5723113026
309 1 50.1412218149 1.013225588 -80.4403120458
310 1 51.1194253492 0.1462256837 -81.1513111933
311 1 49.917017592 1.013225588 -79.0193119365
312 1 50.6710364883 0.1462256837 -78.3093109747
313 1 49.4610463592 1.013225588 -76.1773117179
314 1 50.4430426462 0.1462256837 -76.8883133734
315 1 49.2294236516 1.013225588 -74.7563116086
316 1 49.9798174428 0.1462256837 -74.0463131548
317 1 48.7592713121 1.013225588 -71.91431139
318 1 49.744732734 0.1462256837 -72.6253130455
319 1 48.5208905261 1.013225588 -70.4933112807
320 1 49.2679916871 0.1462256837 -69.7833128269
321 1 48.0378976338 1.013225588 -67.6513110621
322 1 49.0264862318 0.1462256837 -68.3623127176
323 1 47.7934382905 1.013225588 -66.2303109528
324 1 48.5375885404 0.1462256837 -65.520312499
325 1 47.2989815927 1.013225588 -63.3883132422
326 1 48.2903509474 0.1462256837 -64.0993123897
327 1 47.0491407614 1.013225588 -61.9673131329
328 1 47.79069028 0.1462256837 -61.2573121711
329 1 46.5446300647 1.013225588 -59.1253129142
330 1 47.5384254525 0.1462256837 -59.8363120618
331 1 46.2901198561 1.013225588 -57.7043128049
332 1 47.0294263438 0.1462256837 -56.9943118431
333 1 45.7769931694 1.013225588 -54.8623125863
334 1 46.7728532863 0.1462256837 -55.5733117338
335 1 45.5185391686 1.013225588 -53.441312477
336 1 46.2559667497 0.1462256837 -52.7313115152
337 1 44.9982595699 1.013225588 -50.5993122584
338 1 45.9958170012 0.1462256837 -51.3103114059
339 1 44.7365986428 1.013225588 -49.1783121491
340 1 45.4725164554 0.1462256837 -48.4683111873
341 1 44.2106491082 1.013225588 -46.3363119305
342 1 45.2095315823 0.1462256837 -47.047311078
343 1 43.9465272084 1.013225588 -44.9153118212
344 1 44.6813092477 0.1462256837 -44.2053133674
345 1 43.4164073223 1.013225588 -42.0733116026
346 1 44.4162389638 0.1462256837 -42.7843132581
347 1 43.1505774537 1.013225588 -40.6523114933
348 1 43.8846003784 0.1462256837 -39.9423130395
349 1 42.6177983947 1.013225588 -37.8103112747
350 1 43.618200508 0.1462256837 -38.5213129302
351 1 42.3510182619 1.013225588 -36.3893111654
352 1 43.0846613943 0.1462256837 -35.6793127116
353 1 41.8170990425 1.013225588 -33.5473109468
354 1 42.8176912087 0.1462256837 -34.2583126023
355 1 41.5501291703 1.013225588 -32.1263133455
356 1 42.283772616 0.1462256837 -31.4163123837
357 1 41.01659178 1.013225588 -29.2843131268
358 1 42.0169932667 0.1462256837 -29.9953122743
359 1 40.7501933198 1.013225588 -27.8633130175
360 1 41.4842171846 0.1462256837 -27.1533120557
361 1 40.2185588081 1.013225588 -25.0213127989
362 1 41.2183893528 0.1462256837 -25.7323119464
363 1 39.9534911878 1.013225588 -23.6003126896
364 1 40.6882746372 0.1462256837 -22.8903117278
365 1 39.425275277 1.013225588 -20.758312471
366 1 40.4241560276 0.1462256837 -21.4693116185
367 1 39.1622941642 1.013225588 -19.3373123617
368 1 39.8982141704 0.1462256837 -18.6273113999
369 1 38.6390025492 1.013225588 -16.4953121431
370 1 39.6365576303 0.1462256837 -17.2063112906
371 1 38.3788576578 1.013225588 -15.0743120338
372 1 39.1162877458 0.1462256837 -14.364311072
373 1 37.8619822455 1.013225588 -12.2323118152
374 1 38.8578393854 0.1462256837 -12.9433109627
375 1 37.6054151418 1.013225588 -10.8113117059
376 1 38.3447249198 0.1462256837 -10.1013132521
377 1 37.0964293509 1.013225588 -7.9693114873
378 1 38.0902212918 0.1462256837 -8.6803131428
379 1 36.8441717307 1.013225588 -6.548311378
380 1 37.5857248529 0.1462256837 -5.8383129242
381 1 36.3445265746 1.013225588 -3.7063111593
382 1 37.3358918556 0.1462256837 -4.4173128149
383 1 36.0972972856 1.013225588 -2.28531105
384 1 36.8414517659 0.1462256837 -1.5753125962
385 1 35.6084171424 1.013225588 0.5566866606
386 1 36.5970013534 0.1462256837 -0.1543124869
387 1 35.3669212446 1.013225588 1.9776867699
388 1 36.114027106 0.1462256837 2.6876877317
389 1 34.8901999394 1.013225588 4.8196869885
390 1 35.8756563475 0.1462256837 4.108687841
391 1 34.6551257281 1.013225588 6.2406870978
392 1 35.4055248464 0.1462256837 6.9506880596
393 1 34.1919223032 1.013225588 9.0826873164
394 1 35.1739131064 0.1462256837 8.3716881689
395 1 33.9639398988 1.013225588 10.5036874257
396 1 34.7179645923 0.1462256837 11.2136883875
397 1 33.5155748533 1.013225588 13.3456876443
398 1 34.493772277 0.1462256837 12.6346884968
399 1 33.295334321 1.013225588 14.7666877536
400 1 34.0533067238 0.1462256837 15.4766887154
401 1 32.8630858504 1.013225588 17.6086879722
402 1 33.837172931 0.1462256837 16.8976888247
403 1 32.6512148503 1.013225588 19.0296880815
404 1 33.4134458155 0.1462256837 19.7396890433
405 1 32.2363152427 1.013225588 21.8716883001
406 1 33.2059867676 0.1462256837 21.1606866446
407 1 32.033417933 1.013225588 23.2926884094
408 1 32.8002060927 0.1462256837 24.0026868632
409 1 31.6370499658 1.013225588 26.1346886281
410 1 32.6020131 0.1462256837 25.4236869726
411 1 31.4437049656 1.013225588 27.5556887374
412 1 32.2153359474 0.1462256837 28.2656871912
413 1 31.0669986149 1.013225588 30.397688956
414 1 32.026973998 0.1462256837 29.6866873005
415 1 30.8837566545 1.013225588 31.8186865573
416 1 31.6605024549 0.1462256837 32.5286875191
417 1 30.5277859617 1.013225588 34.6606867759
418 1 31.4825088044 0.1462256837 33.9496876284
419 1 30.3551697255 1.013225588 36.0816868852
420 1 31.1372876131 0.1462256837 36.791687847
421 1 30.0209493503 1.013225588 38.9236871038
422 1 30.9701694348 0.1462256837 38.2126879563
423 1 29.8594509703 1.013225588 40.3446872131
424 1 30.6471828589 0.1462256837 41.0546881749
425 1 29.5479336838 1.013225588 43.1866874317
426 1 30.4914166167 0.1462256837 42.4756882842
427 1 29.3980134857 1.013225588 44.607687541
428 1 30.191585308 0.1462256837 45.3176885028
429 1 29.1100875068 1.013225588 47.4496877596
430 1 30.0476151896 0.1462256837 46.7386886121
431 1 28.9721729137 1.013225588 48.8706878689
432 1 29.7717941508 0.1462256837 49.5806888307
433 1 28.7086589322 1.013225588 51.7126880875
434 1 29.6400305011 0.1462256837 51.00168894
435 1 28.5831430542 1.013225588 53.1336881969
436 1 29.3890057958 0.1462256837 53.8436866507
437 1 28.3447925075 1.013225588 55.9756884155
438 1 29.2698241769 0.1462256837 55.26468676
439 1 28.2320332018 1.013225588 57.3966885248
440 1 29.0443115193 0.1462256837 58.1066869786
441 1 28.0195252975 1.013225588 60.2386887434
442 1 28.9380519267 0.1462256837 59.5276870879
443 1 27.9198440714 1.013225588 61.6596888527
444 1 28.7386941748 0.1462256837 62.3696873065
445 1 27.7337848479 1.013225588 64.5016865633
446 1 28.6456593143 0.1462256837 63.7906874158
447 1 27.6474659189 1.013225588 65.9226866726
448 1 28.47302506 0.1462256837 66.6326876344
449 1 27.488385738 1.013225588 68.7646868912
450 1 28.3934801908 0.1462256837 68.0536877437
451 1 27.415674937 1.013225588 70.1856870005
452 1 28.2480612524 0.1462256837 70.8956879623
453 1 27.2840273873 1.013225588 73.0276872191
454 1 28.1822332472 0.1462256837 72.3166880716
455 1 27.2251323154 1.013225588 74.4486873284
456 1 28.0644443568 0.1462256837 75.1586882902
457 1 27.1212924887 1.013225588 77.290687547
458 1 28.0125207614 0.1462256837 76.5796883995
459 1 27.0763807934 1.013225588 78.7116876563
460 1 27.9226976842 0.1462256837 79.4216886181
461 1 27.0006449717 1.013225588 81.553687875
462 1 27.8848265614 0.1462256837 80.8426887275
463 1 26.9698448173 1.013225588 82.9746879843
464 1 27.8232253126 0.1462256837 83.6846889461
465 1 26.9224287489 1.013225588 85.8166882029
466 1 27.7995147715 0.1462256837 85.1056890554
467 1 26.9058278762 1.013225588 87.2376883122
468 1 27.7663109892 0.1462256837 87.947686766
469 1 26.8868667759 1.013225588 90.0796885308
470 1 27.7568284022 0.1462256837 89.3686868753
471 1 55.7925125782 1.5692255631 -159.3063121891
472 1 54.5771638364 1.7612256221 -157.1743129323
473 1 55.7901363693 1.5692255631 -157.8853120798
474 1 54.5676593142 1.7612256221 -155.753312823
475 1 55.7711313987 1.5692255631 -155.0433118612
476 1 54.5344116616 1.7612256221 -152.9113126044
477 1 55.7545085908 1.5692255631 -153.6223117519
478 1 54.5106791853 1.7612256221 -151.4903124951
479 1 55.7070488086 1.5692255631 -150.7803115333
480 1 54.4490342227 1.7612256221 -148.6483122765
481 1 55.676226719 1.5692255631 -149.359311424
482 1 54.411141478 1.7612256221 -147.2273121672
483 1 55.6004473403 1.5692255631 -146.5173112054
484 1 54.3212750005 1.7612256221 -144.3853119486
485 1 55.5555140232 1.5692255631 -145.0963110961
486 1 54.26932994 1.7612256221 -142.9643118392
487 1 55.4516312662 1.5692255631 -142.2543133854
488 1 54.1514981193 1.7612256221 -140.1223116206
489 1 55.3927145724 1.5692255631 -140.8333132761
490 1 54.0856488056 1.7612256221 -138.7013115113
491 1 55.2610244057 1.5692255631 -137.9913130575
492 1 53.9401875636 1.7612256221 -135.8593112927
493 1 55.1882924529 1.5692255631 -136.5703129482
494 1 53.8606216993 1.7612256221 -134.4383111834
495 1 55.0291704384 1.5692255631 -133.7283127296
496 1 53.687945768 1.7612256221 -131.5963109648
497 1 54.9428305143 1.5692255631 -132.3073126203
498 1 53.5948902258 1.7612256221 -130.1753133635
499 1 54.756730084 1.5692255631 -129.4653124017
500 1 53.3954918938 1.7612256221 -127.3333131449
501 1 54.6570284895 1.5692255631 -128.0443122924
502 1 53.2892119328 1.7612256221 -125.9123130356
503 1 54.4444803185 1.5692255631 -125.2023120738
504 1 53.0636594785 1.7612256221 -123.070312817
505 1 54.3317011144 1.5692255631 -123.7813119645
506 1 52.9444582746 1.7612256221 -121.6493127077
507 1 54.093311241 1.5692255631 -120.9393117459
508 1 52.6933948693 1.7612256221 -118.8073124891
509 1 53.9677759347 1.5692255631 -119.5183116366
510 1 52.5616121047 1.7612256221 -117.3863123798
511 1 53.7042237233 1.5692255631 -116.676311418
512 1 52.285753306 1.7612256221 -114.5443121611
513 1 53.5662903286 1.5692255631 -115.2553113086
514 1 52.1417646994 1.7612256221 -113.1233120518
515 1 53.2783273732 1.5692255631 -112.41331109
516 1 51.8418970409 1.7612256221 -110.2813118332
517 1 53.1283890002 1.5692255631 -110.9923109807
518 1 51.6861129371 1.7612256221 -108.8603117239
519 1 52.8168359907 1.5692255631 -108.1503132701
520 1 51.3630912649 1.7612256221 -106.0183115053
521 1 52.6553200625 1.5692255631 -106.7293131608
522 1 51.1959560085 1.7612256221 -104.597311396
523 1 52.3210653744 1.5692255631 -103.8873129422
524 1 50.8507012876 1.7612256221 -101.7553111774
525 1 52.1484323734 1.5692255631 -102.4663128329
526 1 50.6726911858 1.7612256221 -100.3343110681
527 1 51.7924289345 1.5692255631 -99.6243126143
528 1 50.30618768 1.7612256221 -97.4923133575
529 1 51.6091709928 1.5692255631 -98.203312505
530 1 50.1178102192 1.7612256221 -96.0713132482
531 1 51.2324336194 1.5692255631 -95.3613122864
532 1 49.7311026708 1.7612256221 -93.2293130296
533 1 51.0390732646 1.5692255631 -93.9403121771
534 1 49.5328949501 1.7612256221 -91.8083129203
535 1 50.6426758415 1.5692255631 -91.0983119585
536 1 49.1270857594 1.7612256221 -88.9663127017
537 1 50.4397642739 1.5692255631 -89.6773118492
538 1 48.9196129237 1.7612256221 -87.5453125924
539 1 50.024836934 1.5692255631 -86.8353116305
540 1 48.4958590159 1.7612256221 -84.7033123737
541 1 49.8129527728 1.5692255631 -85.4143115212
542 1 48.2797123754 1.7612256221 -83.2823122644
543 1 49.38067845 1.5692255631 -82.5723113026
544 1 47.83922191 1.7612256221 -80.4403120458
545 1 49.1604253833 1.5692255631 -81.1513111933
546 1 47.6150176871 1.7612256221 -79.0193119365
547 1 48.7120365224 1.5692255631 -78.3093109747
548 1 47.1590462976 1.7612256221 -76.1773117179
549 1 48.4840426804 1.5692255631 -76.8883133734
550 1 46.9274235901 1.7612256221 -74.7563116086
551 1 48.0208173203 1.5692255631 -74.0463131548
552 1 46.4572712505 1.7612256221 -71.91431139
553 1 47.7857326114 1.5692255631 -72.6253130455
554 1 46.2188906212 1.7612256221 -70.4933112807
555 1 47.3089915645 1.5692255631 -69.7833128269
556 1 45.7358975722 1.7612256221 -67.6513110621
557 1 47.067486266 1.5692255631 -68.3623127176
558 1 45.4914383856 1.7612256221 -66.2303109528
559 1 46.5785885745 1.5692255631 -65.520312499
560 1 44.9969816878 1.7612256221 -63.3883132422
561 1 46.3313509815 1.5692255631 -64.0993123897
562 1 44.7471408566 1.7612256221 -61.9673131329
563 1 45.8316903141 1.5692255631 -61.2573121711
564 1 44.2426300031 1.7612256221 -59.1253129142
565 1 45.5794254866 1.5692255631 -59.8363120618
566 1 43.9881197945 1.7612256221 -57.7043128049
567 1 45.0704263779 1.5692255631 -56.9943118431
568 1 43.4749931079 1.7612256221 -54.8623125863
569 1 44.8138533204 1.5692255631 -55.5733117338
570 1 43.2165392637 1.7612256221 -53.441312477
571 1 44.2969666271 1.5692255631 -52.7313115152
572 1 42.6962595083 1.7612256221 -50.5993122584
573 1 44.0368168786 1.5692255631 -51.3103114059
574 1 42.4345985812 1.7612256221 -49.1783121491
575 1 43.5135164895 1.5692255631 -48.4683111873
576 1 41.9086492034 1.7612256221 -46.3363119305
577 1 43.2505316164 1.5692255631 -47.047311078
578 1 41.6445273035 1.7612256221 -44.9153118212
579 1 42.7223092818 1.5692255631 -44.2053133674
580 1 41.1144074174 1.7612256221 -42.0733116026
581 1 42.4572389979 1.5692255631 -42.7843132581
582 1 40.8485773922 1.7612256221 -40.6523114933
583 1 41.9256004126 1.5692255631 -39.9423130395
584 1 40.3157984898 1.7612256221 -37.8103112747
585 1 41.6592005422 1.5692255631 -38.5213129302
586 1 40.0490182004 1.7612256221 -36.3893111654
587 1 41.1256614284 1.5692255631 -35.6793127116
588 1 39.515098981 1.7612256221 -33.5473109468
589 1 40.8586912428 1.5692255631 -34.2583126023
590 1 39.2481291087 1.7612256221 -32.1263133455
591 1 40.3247724935 1.5692255631 -31.4163123837
592 1 38.7145917185 1.7612256221 -29.2843131268
593 1 40.0579933008 1.5692255631 -29.9953122743
594 1 38.4481934149 1.7612256221 -27.8633130175
595 1 39.5252172187 1.5692255631 -27.1533120557
596 1 37.9165589032 1.7612256221 -25.0213127989
597 1 39.2593892303 1.5692255631 -25.7323119464
598 1 37.6514912829 1.7612256221 -23.6003126896
599 1 38.7292746713 1.5692255631 -22.8903117278
600 1 37.1232752155 1.7612256221 -20.758312471
601 1 38.4651560617 1.5692255631 -21.4693116185
602 1 36.8602942594 1.7612256221 -19.3373123617
603 1 37.9392142045 1.5692255631 -18.6273113999
604 1 36.3370024877 1.7612256221 -16.4953121431
605 1 37.6775576644 1.5692255631 -17.2063112906
606 1 36.0768577529 1.7612256221 -15.0743120338
607 1 37.1572877799 1.5692255631 -14.364311072
608 1 35.5599821839 1.7612256221 -12.2323118152
609 1 36.8988394195 1.5692255631 -12.9433109627
610 1 35.303415237 1.7612256221 -10.8113117059
611 1 36.3857247972 1.5692255631 -10.1013132521
612 1 34.7944292894 1.7612256221 -7.9693114873
613 1 36.1312213259 1.5692255631 -8.6803131428
614 1 34.5421716691 1.7612256221 -6.548311378
615 1 35.626724887 1.5692255631 -5.8383129242
616 1 34.0425265131 1.7612256221 -3.7063111593
617 1 35.3768918898 1.5692255631 -4.4173128149
618 1 33.7952972241 1.7612256221 -2.28531105
619 1 34.8824518 1.5692255631 -1.5753125962
620 1 33.3064172375 1.7612256221 0.5566866606
621 1 34.6380013875 1.5692255631 -0.1543124869
622 1 33.064921183 1.7612256221 1.9776867699
623 1 34.1550271401 1.5692255631 2.6876877317
624 1 32.5882000345 1.7612256221 4.8196869885
625 1 33.916656225 1.5692255631 4.108687841