 # Fcc Al oriented X=[100] Y=[010] Z=[001].
 CRYSTAL
 PRIMVEC
    323.68000000        0.00000000        0.00000000
      0.00000000       20.23000000        0.00000000
      0.00000000        0.00000000       20.23000000
 CONVVEC
    323.68000000        0.00000000        0.00000000
      0.00000000       20.23000000        0.00000000
      0.00000000        0.00000000       20.23000000
 PRIMCOORD
     8000 1
13        0.00000000        0.00000000        0.00000000
13        2.02300000        2.02300000        0.00000000
13        0.00000000        2.02300000        2.02300000
13        2.02300000        0.00000000        2.02300000
13        4.04600000        0.00000000        0.00000000
13        6.06900000        2.02300000        0.00000000
13        4.04600000        2.02300000        2.02300000
13        6.06900000        0.00000000        2.02300000
13        8.09200000        0.00000000        0.00000000
13       10.11500000        2.02300000        0.00000000
13        8.09200000        2.02300000        2.02300000
13       10.11500000        0.00000000        2.02300000
13       12.13800000        0.00000000        0.00000000
13       14.16100000        2.02300000        0.00000000
13       12.13800000        2.02300000        2.02300000
13       14.16100000        0.00000000        2.02300000
13       16.18400000        0.00000000        0.00000000
13       18.20700000        2.02300000        0.00000000
13       16.18400000        2.02300000        2.02300000
13       18.20700000        0.00000000        2.02300000
13       20.23000000        0.00000000        0.00000000
13       22.25300000        2.02300000        0.00000000
13       20.23000000        2.02300000        2.02300000
13       22.25300000        0.00000000        2.02300000
13       24.27600000        0.00000000        0.00000000
13       26.29900000        2.02300000        0.00000000
13       24.27600000        2.02300000        2.02300000
13       26.29900000        0.00000000        2.02300000
13       28.32200000        0.00000000        0.00000000
13       30.34500000        2.02300000        0.00000000
13       28.32200000        2.02300000        2.02300000
13       30.34500000        0.00000000        2.02300000
13       32.36800000        0.00000000        0.00000000
13       34.39100000        2.02300000        0.00000000
13       32.36800000        2.02300000        2.02300000
13       34.39100000        0.00000000        2.02300000
13       36.41400000        0.00000000        0.00000000
13       38.43700000        2.02300000        0.00000000
13       36.41400000        2.02300000        2.02300000
13       38.43700000        0.00000000        2.02300000
13       40.46000000        0.00000000        0.00000000
13       42.48300000        2.02300000        0.00000000
13       40.46000000        2.02300000        2.02300000
13       42.48300000        0.00000000        2.02300000
13       44.50600000        0.00000000        0.00000000
13       46.52900000        2.02300000        0.00000000
13       44.50600000        2.02300000        2.02300000
13       46.52900000        0.00000000        2.02300000
13       48.55200000        0.00000000        0.00000000
13       50.57500000        2.02300000        0.00000000
13       48.55200000        2.02300000        2.02300000
13       50.57500000        0.00000000        2.02300000
13       52.59800000        0.00000000        0.00000000
13       54.62100000        2.02300000        0.00000000
13       52.59800000        2.02300000        2.02300000
13       54.62100000        0.00000000        2.02300000
13       56.64400000        0.00000000        0.00000000
13       58.66700000        2.02300000        0.00000000
13       56.64400000        2.02300000        2.02300000
13       58.66700000        0.00000000        2.02300000
13       60.69000000        0.00000000        0.00000000
13       62.71300000        2.02300000        0.00000000
13       60.69000000        2.02300000        2.02300000
13       62.71300000        0.00000000        2.02300000
13       64.73600000        0.00000000        0.00000000
13       66.75900000        2.02300000        0.00000000
13       64.73600000        2.02300000        2.02300000
13       66.75900000        0.00000000        2.02300000
13       68.78200000        0.00000000        0.00000000
13       70.80500000        2.02300000        0.00000000
13       68.78200000        2.02300000        2.02300000
13       70.80500000        0.00000000        2.02300000
13       72.82800000        0.00000000        0.00000000
13       74.85100000        2.02300000        0.00000000
13       72.82800000        2.02300000        2.02300000
13       74.85100000        0.00000000        2.02300000
13       76.87400000        0.00000000        0.00000000
13       78.89700000        2.02300000        0.00000000
13       76.87400000        2.02300000        2.02300000
13       78.89700000        0.00000000        2.02300000
13       80.92000000        0.00000000        0.00000000
13       82.94300000        2.02300000        0.00000000
13       80.92000000        2.02300000        2.02300000
13       82.94300000        0.00000000        2.02300000
13       84.96600000        0.00000000        0.00000000
13       86.98900000        2.02300000        0.00000000
13       84.96600000        2.02300000        2.02300000
13       86.98900000        0.00000000        2.02300000
13       89.01200000        0.00000000        0.00000000
13       91.03500000        2.02300000        0.00000000
13       89.01200000        2.02300000        2.02300000
13       91.03500000        0.00000000        2.02300000
13       93.05800000        0.00000000        0.00000000
13       95.08100000        2.02300000        0.00000000
13       93.05800000        2.02300000        2.02300000
13       95.08100000        0.00000000        2.02300000
13       97.10400000        0.00000000        0.00000000
13       99.12700000        2.02300000        0.00000000
13       97.10400000        2.02300000        2.02300000
13       99.12700000        0.00000000        2.02300000
13      101.15000000        0.00000000        0.00000000
13      103.17300000        2.02300000        0.00000000
13      101.15000000        2.02300000        2.02300000
13      103.17300000        0.00000000        2.02300000
13      105.19600000        0.00000000        0.00000000
13      107.21900000        2.02300000        0.00000000
13      105.19600000        2.02300000        2.02300000
13      107.21900000        0.00000000        2.02300000
13      109.24200000        0.00000000        0.00000000
13      111.26500000        2.02300000        0.00000000
13      109.24200000        2.02300000        2.02300000
13      111.26500000        0.00000000        2.02300000
13      113.28800000        0.00000000        0.00000000
13      115.31100000        2.02300000        0.00000000
13      113.28800000        2.02300000        2.02300000
13      115.31100000        0.00000000        2.02300000
13      117.33400000        0.00000000        0.00000000
13      119.35700000        2.02300000        0.00000000
13      117.33400000        2.02300000        2.02300000
13      119.35700000        0.00000000        2.02300000
13      121.38000000        0.00000000        0.00000000
13      123.40300000        2.02300000        0.00000000
13      121.38000000        2.02300000        2.02300000
13      123.40300000        0.00000000        2.02300000
13      125.42600000        0.00000000        0.00000000
13      127.44900000        2.02300000        0.00000000
13      125.42600000        2.02300000        2.02300000
13      127.44900000        0.00000000        2.02300000
13      129.47200000        0.00000000        0.00000000
13      131.49500000        2.02300000        0.00000000
13      129.47200000        2.02300000        2.02300000
13      131.49500000        0.00000000        2.02300000
13      133.51800000        0.00000000        0.00000000
13      135.54100000        2.02300000        0.00000000
13      133.51800000        2.02300000        2.02300000
13      135.54100000        0.00000000        2.02300000
13      137.56400000        0.00000000        0.00000000
13      139.58700000        2.02300000        0.00000000
13      137.56400000        2.02300000        2.02300000
13      139.58700000        0.00000000        2.02300000
13      141.61000000        0.00000000        0.00000000
13      143.63300000        2.02300000        0.00000000
13      141.61000000        2.02300000        2.02300000
13      143.63300000        0.00000000        2.02300000
13      145.65600000        0.00000000        0.00000000
13      147.67900000        2.02300000        0.00000000
13      145.65600000        2.02300000        2.02300000
13      147.67900000        0.00000000        2.02300000
13      149.70200000        0.00000000        0.00000000
13      151.72500000        2.02300000        0.00000000
13      149.70200000        2.02300000        2.02300000
13      151.72500000        0.00000000        2.02300000
13      153.74800000        0.00000000        0.00000000
13      155.77100000        2.02300000        0.00000000
13      153.74800000        2.02300000        2.02300000
13      155.77100000        0.00000000        2.02300000
13      157.79400000        0.00000000        0.00000000
13      159.81700000        2.02300000        0.00000000
13      157.79400000        2.02300000        2.02300000
13      159.81700000        0.00000000        2.02300000
13      161.84000000        0.00000000        0.00000000
13      163.86300000        2.02300000        0.00000000
13      161.84000000        2.02300000        2.02300000
13      163.86300000        0.00000000        2.02300000
13      165.88600000        0.00000000        0.00000000
13      167.90900000        2.02300000        0.00000000
13      165.88600000        2.02300000        2.02300000
13      167.90900000        0.00000000        2.02300000
13      169.93200000        0.00000000        0.00000000
13      171.95500000        2.02300000        0.00000000
13      169.93200000        2.02300000        2.02300000
13      171.95500000        0.00000000        2.02300000
13      173.97800000        0.00000000        0.00000000
13      176.00100000        2.02300000        0.00000000
13      173.97800000        2.02300000        2.02300000
13      176.00100000        0.00000000        2.02300000
13      178.02400000        0.00000000        0.00000000
13      180.04700000        2.02300000        0.00000000
13      178.02400000        2.02300000        2.02300000
13      180.04700000        0.00000000        2.02300000
13      182.07000000        0.00000000        0.00000000
13      184.09300000        2.02300000        0.00000000
13      182.07000000        2.02300000        2.02300000
13      184.09300000        0.00000000        2.02300000
13      186.11600000        0.00000000        0.00000000
13      188.13900000        2.02300000        0.00000000
13      186.11600000        2.02300000        2.02300000
13      188.13900000        0.00000000        2.02300000
13      190.16200000        0.00000000        0.00000000
13      192.18500000        2.02300000        0.00000000
13      190.16200000        2.02300000        2.02300000
13      192.18500000        0.00000000        2.02300000
13      194.20800000        0.00000000        0.00000000
13      196.23100000        2.02300000        0.00000000
13      194.20800000        2.02300000        2.02300000
13      196.23100000        0.00000000        2.02300000
13      198.25400000        0.00000000        0.00000000
13      200.27700000        2.02300000        0.00000000
13      198.25400000        2.02300000        2.02300000
13      200.27700000        0.00000000        2.02300000
13      202.30000000        0.00000000        0.00000000
13      204.32300000        2.02300000        0.00000000
13      202.30000000        2.02300000        2.02300000
13      204.32300000        0.00000000        2.02300000
13      206.34600000        0.00000000        0.00000000
13      208.36900000        2.02300000        0.00000000
13      206.34600000        2.02300000        2.02300000
13      208.36900000        0.00000000        2.02300000
13      210.39200000        0.00000000        0.00000000
13      212.41500000        2.02300000        0.00000000
13      210.39200000        2.02300000        2.02300000
13      212.41500000        0.00000000        2.02300000
13      214.43800000        0.00000000        0.00000000
13      216.46100000        2.02300000        0.00000000
13      214.43800000        2.02300000        2.02300000
13      216.46100000        0.00000000        2.02300000
13      218.48400000        0.00000000        0.00000000
13      220.50700000        2.02300000        0.00000000
13      218.48400000        2.02300000        2.02300000
13      220.50700000        0.00000000        2.02300000
13      222.53000000        0.00000000        0.00000000
13      224.55300000        2.02300000        0.00000000
13      222.53000000        2.02300000        2.02300000
13      224.55300000        0.00000000        2.02300000
13      226.57600000        0.00000000        0.00000000
13      228.59900000        2.02300000        0.00000000
13      226.57600000        2.02300000        2.02300000
13      228.59900000        0.00000000        2.02300000
13      230.62200000        0.00000000        0.00000000
13      232.64500000        2.02300000        0.00000000
13      230.62200000        2.02300000        2.02300000
13      232.64500000        0.00000000        2.02300000
13      234.66800000        0.00000000        0.00000000
13      236.69100000        2.02300000        0.00000000
13      234.66800000        2.02300000        2.02300000
13      236.69100000        0.00000000        2.02300000
13      238.71400000        0.00000000        0.00000000
13      240.73700000        2.02300000        0.00000000
13      238.71400000        2.02300000        2.02300000
13      240.73700000        0.00000000        2.02300000
13      242.76000000        0.00000000        0.00000000
13      244.78300000        2.02300000        0.00000000
13      242.76000000        2.02300000        2.02300000
13      244.78300000        0.00000000        2.02300000
13      246.80600000        0.00000000        0.00000000
13      248.82900000        2.02300000        0.00000000
13      246.80600000        2.02300000        2.02300000
13      248.82900000        0.00000000        2.02300000
13      250.85200000        0.00000000        0.00000000
13      252.87500000        2.02300000        0.00000000
13      250.85200000        2.02300000        2.02300000
13      252.87500000        0.00000000        2.02300000
13      254.89800000        0.00000000        0.00000000
13      256.92100000        2.02300000        0.00000000
13      254.89800000        2.02300000        2.02300000
13      256.92100000        0.00000000        2.02300000
13      258.94400000        0.00000000        0.00000000
13      260.96700000        2.02300000        0.00000000
13      258.94400000        2.02300000        2.02300000
13      260.96700000        0.00000000        2.02300000
13      262.99000000        0.00000000        0.00000000
13      265.01300000        2.02300000        0.00000000
13      262.99000000        2.02300000        2.02300000
13      265.01300000        0.00000000        2.02300000
13      267.03600000        0.00000000        0.00000000
13      269.05900000        2.02300000        0.00000000
13      267.03600000        2.02300000        2.02300000
13      269.05900000        0.00000000        2.02300000
13      271.08200000        0.00000000        0.00000000
13      273.10500000        2.02300000        0.00000000
13      271.08200000        2.02300000        2.02300000
13      273.10500000        0.00000000        2.02300000
13      275.12800000        0.00000000        0.00000000
13      277.15100000        2.02300000        0.00000000
13      275.12800000        2.02300000        2.02300000
13      277.15100000        0.00000000        2.02300000
13      279.17400000        0.00000000        0.00000000
13      281.19700000        2.02300000        0.00000000
13      279.17400000        2.02300000        2.02300000
13      281.19700000        0.00000000        2.02300000
13      283.22000000        0.00000000        0.00000000
13      285.24300000        2.02300000        0.00000000
13      283.22000000        2.02300000        2.02300000
13      285.24300000        0.00000000        2.02300000
13      287.26600000        0.00000000        0.00000000
13      289.28900000        2.02300000        0.00000000
13      287.26600000        2.02300000        2.02300000
13      289.28900000        0.00000000        2.02300000
13      291.31200000        0.00000000        0.00000000
13      293.33500000        2.02300000        0.00000000
13      291.31200000        2.02300000        2.02300000
13      293.33500000        0.00000000        2.02300000
13      295.35800000        0.00000000        0.00000000
13      297.38100000        2.02300000        0.00000000
13      295.35800000        2.02300000        2.02300000
13      297.38100000        0.00000000        2.02300000
13      299.40400000        0.00000000        0.00000000
13      301.42700000        2.02300000        0.00000000
13      299.40400000        2.02300000        2.02300000
13      301.42700000        0.00000000        2.02300000
13      303.45000000        0.00000000        0.00000000
13      305.47300000        2.02300000        0.00000000
13      303.45000000        2.02300000        2.02300000
13      305.47300000        0.00000000        2.02300000
13      307.49600000        0.00000000        0.00000000
13      309.51900000        2.02300000        0.00000000
13      307.49600000        2.02300000        2.02300000
13      309.51900000        0.00000000        2.02300000
13      311.54200000        0.00000000        0.00000000
13      313.56500000        2.02300000        0.00000000
13      311.54200000        2.02300000        2.02300000
13      313.56500000        0.00000000        2.02300000
13      315.58800000        0.00000000        0.00000000
13      317.61100000        2.02300000        0.00000000
13      315.58800000        2.02300000        2.02300000
13      317.61100000        0.00000000        2.02300000
13      319.63400000        0.00000000        0.00000000
13      321.65700000        2.02300000        0.00000000
13      319.63400000        2.02300000        2.02300000
13      321.65700000        0.00000000        2.02300000
13        0.00000000        4.04600000        0.00000000
13        2.02300000        6.06900000        0.00000000
13        0.00000000        6.06900000        2.02300000
13        2.02300000        4.04600000        2.02300000
13        4.04600000        4.04600000        0.00000000
13        6.06900000        6.06900000        0.00000000
13        4.04600000        6.06900000        2.02300000
13        6.06900000        4.04600000        2.02300000
13        8.09200000        4.04600000        0.00000000
13       10.11500000        6.06900000        0.00000000
13        8.09200000        6.06900000        2.02300000
13       10.11500000        4.04600000        2.02300000
13       12.13800000        4.04600000        0.00000000
13       14.16100000        6.06900000        0.00000000
13       12.13800000        6.06900000        2.02300000
13       14.16100000        4.04600000        2.02300000
13       16.18400000        4.04600000        0.00000000
13       18.20700000        6.06900000        0.00000000
13       16.18400000        6.06900000        2.02300000
13       18.20700000        4.04600000        2.02300000
13       20.23000000        4.04600000        0.00000000
13       22.25300000        6.06900000        0.00000000
13       20.23000000        6.06900000        2.02300000
13       22.25300000        4.04600000        2.02300000
13       24.27600000        4.04600000        0.00000000
13       26.29900000        6.06900000        0.00000000
13       24.27600000        6.06900000        2.02300000
13       26.29900000        4.04600000        2.02300000
13       28.32200000        4.04600000        0.00000000
13       30.34500000        6.06900000        0.00000000
13       28.32200000        6.06900000        2.02300000
13       30.34500000        4.04600000        2.02300000
13       32.36800000        4.04600000        0.00000000
13       34.39100000        6.06900000        0.00000000
13       32.36800000        6.06900000        2.02300000
13       34.39100000        4.04600000        2.02300000
13       36.41400000        4.04600000        0.00000000
13       38.43700000        6.06900000        0.00000000
13       36.41400000        6.06900000        2.02300000
13       38.43700000        4.04600000        2.02300000
13       40.46000000        4.04600000        0.00000000
13       42.48300000        6.06900000        0.00000000
13       40.46000000        6.06900000        2.02300000
13       42.48300000        4.04600000        2.02300000
13       44.50600000        4.04600000        0.00000000
13       46.52900000        6.06900000        0.00000000
13       44.50600000        6.06900000        2.02300000
13       46.52900000        4.04600000        2.02300000
13       48.55200000        4.04600000        0.00000000
13       50.57500000        6.06900000        0.00000000
13       48.55200000        6.06900000        2.02300000
13       50.57500000        4.04600000        2.02300000
13       52.59800000        4.04600000        0.00000000
13       54.62100000        6.06900000        0.00000000
13       52.59800000        6.06900000        2.02300000
13       54.62100000        4.04600000        2.02300000
13       56.64400000        4.04600000        0.00000000
13       58.66700000        6.06900000        0.00000000
13       56.64400000        6.06900000        2.02300000
13       58.66700000        4.04600000        2.02300000
13       60.69000000        4.04600000        0.00000000
13       62.71300000        6.06900000        0.00000000
13       60.69000000        6.06900000        2.02300000
13       62.71300000        4.04600000        2.02300000
13       64.73600000        4.04600000        0.00000000
13       66.75900000        6.06900000        0.00000000
13       64.73600000        6.06900000        2.02300000
13       66.75900000        4.04600000        2.02300000
13       68.78200000        4.04600000        0.00000000
13       70.80500000        6.06900000        0.00000000
13       68.78200000        6.06900000        2.02300000
13       70.80500000        4.04600000        2.02300000
13       72.82800000        4.04600000        0.00000000
13       74.85100000        6.06900000        0.00000000
13       72.82800000        6.06900000        2.02300000
13       74.85100000        4.04600000        2.02300000
13       76.87400000        4.04600000        0.00000000
13       78.89700000        6.06900000        0.00000000
13       76.87400000        6.06900000        2.02300000
13       78.89700000        4.04600000        2.02300000
13       80.92000000        4.04600000        0.00000000
13       82.94300000        6.06900000        0.00000000
13       80.92000000        6.06900000        2.02300000
13       82.94300000        4.04600000        2.02300000
13       84.96600000        4.04600000        0.00000000
13       86.98900000        6.06900000        0.00000000
13       84.96600000        6.06900000        2.02300000
13       86.98900000        4.04600000        2.02300000
13       89.01200000        4.04600000        0.00000000
13       91.03500000        6.06900000        0.00000000
13       89.01200000        6.06900000        2.02300000
13       91.03500000        4.04600000        2.02300000
13       93.05800000        4.04600000        0.00000000
13       95.08100000        6.06900000        0.00000000
13       93.05800000        6.06900000        2.02300000
13       95.08100000        4.04600000        2.02300000
13       97.10400000        4.04600000        0.00000000
13       99.12700000        6.06900000        0.00000000
13       97.10400000        6.06900000        2.02300000
13       99.12700000        4.04600000        2.02300000
13      101.15000000        4.04600000        0.00000000
13      103.17300000        6.06900000        0.00000000
13      101.15000000        6.06900000        2.02300000
13      103.17300000        4.04600000        2.02300000
13      105.19600000        4.04600000        0.00000000
13      107.21900000        6.06900000        0.00000000
13      105.19600000        6.06900000        2.02300000
13      107.21900000        4.04600000        2.02300000
13      109.24200000        4.04600000        0.00000000
13      111.26500000        6.06900000        0.00000000
13      109.24200000        6.06900000        2.02300000
13      111.26500000        4.04600000        2.02300000
13      113.28800000        4.04600000        0.00000000
13      115.31100000        6.06900000        0.00000000
13      113.28800000        6.06900000        2.02300000
13      115.31100000        4.04600000        2.02300000
13      117.33400000        4.04600000        0.00000000
13      119.35700000        6.06900000        0.00000000
13      117.33400000        6.06900000        2.02300000
13      119.35700000        4.04600000        2.02300000
13      121.38000000        4.04600000        0.00000000
13      123.40300000        6.06900000        0.00000000
13      121.38000000        6.06900000        2.02300000
13      123.40300000        4.04600000        2.02300000
13      125.42600000        4.04600000        0.00000000
13      127.44900000        6.06900000        0.00000000
13      125.42600000        6.06900000        2.02300000
13      127.44900000        4.04600000        2.02300000
13      129.47200000        4.04600000        0.00000000
13      131.49500000        6.06900000        0.00000000
13      129.47200000        6.06900000        2.02300000
13      131.49500000        4.04600000        2.02300000
13      133.51800000        4.04600000        0.00000000
13      135.54100000        6.06900000        0.00000000
13      133.51800000        6.06900000        2.02300000
13      135.54100000        4.04600000        2.02300000
13      137.56400000        4.04600000        0.00000000
13      139.58700000        6.06900000        0.00000000
13      137.56400000        6.06900000        2.02300000
13      139.58700000        4.04600000        2.02300000
13      141.61000000        4.04600000        0.00000000
13      143.63300000        6.06900000        0.00000000
13      141.61000000        6.06900000        2.02300000
13      143.63300000        4.04600000        2.02300000
13      145.65600000        4.04600000        0.00000000
13      147.67900000        6.06900000        0.00000000
13      145.65600000        6.06900000        2.02300000
13      147.67900000        4.04600000        2.02300000
13      149.70200000        4.04600000        0.00000000
13      151.72500000        6.06900000        0.00000000
13      149.70200000        6.06900000        2.02300000
13      151.72500000        4.04600000        2.02300000
13      153.74800000        4.04600000        0.00000000
13      155.77100000        6.06900000        0.00000000
13      153.74800000        6.06900000        2.02300000
13      155.77100000        4.04600000        2.02300000
13      157.79400000        4.04600000        0.00000000
13      159.81700000        6.06900000        0.00000000
13      157.79400000        6.06900000        2.02300000
13      159.81700000        4.04600000        2.02300000
13      161.84000000        4.04600000        0.00000000
13      163.86300000        6.06900000        0.00000000
13      161.84000000        6.06900000        2.02300000
13      163.86300000        4.04600000        2.02300000
13      165.88600000        4.04600000        0.00000000
13      167.90900000        6.06900000        0.00000000
13      165.88600000        6.06900000        2.02300000
13      167.90900000        4.04600000        2.02300000
13      169.93200000        4.04600000        0.00000000
13      171.95500000        6.06900000        0.00000000
13      169.93200000        6.06900000        2.02300000
13      171.95500000        4.04600000        2.02300000
13      173.97800000        4.04600000        0.00000000
13      176.00100000        6.06900000        0.00000000
13      173.97800000        6.06900000        2.02300000
13      176.00100000        4.04600000        2.02300000
13      178.02400000        4.04600000        0.00000000
13      180.04700000        6.06900000        0.00000000
13      178.02400000        6.06900000        2.02300000
13      180.04700000        4.04600000        2.02300000
13      182.07000000        4.04600000        0.00000000
13      184.09300000        6.06900000        0.00000000
13      182.07000000        6.06900000        2.02300000
13      184.09300000        4.04600000        2.02300000
13      186.11600000        4.04600000        0.00000000
13      188.13900000        6.06900000        0.00000000
13      186.11600000        6.06900000        2.02300000
13      188.13900000        4.04600000        2.02300000
13      190.16200000        4.04600000        0.00000000
13      192.18500000        6.06900000        0.00000000
13      190.16200000        6.06900000        2.02300000
13      192.18500000        4.04600000        2.02300000
13      194.20800000        4.04600000        0.00000000
13      196.23100000        6.06900000        0.00000000
13      194.20800000        6.06900000        2.02300000
13      196.23100000        4.04600000        2.02300000
13      198.25400000        4.04600000        0.00000000
13      200.27700000        6.06900000        0.00000000
13      198.25400000        6.06900000        2.02300000